 *******************************************************************************
 ** Site#: 21704        For non-commercial use only    Version 19.179L 64BITS **
 *******************************************************************************
 ** Cite this program as: MOPAC2016, Version: 19.179L, James J. P. Stewart,   **
 ** Stewart Computational Chemistry, web-site: HTTP://OpenMOPAC.net.          **
 *******************************************************************************
 **                                                                           **
 **                                MOPAC2016                                  **
 **                                                                           **
 *******************************************************************************

                              PM6 CALCULATION RESULTS

 *******************************************************************************
 *  CALCULATION DONE:                                Sat Aug 29 12:04:39 2020  *
 *  PM6        - The PM6 Hamiltonian to be used
 *
 *
 *
 *                 CHARGE ON SYSTEM = 0
 *
 *
 *
 *  PRECISE    - CRITERIA TO BE INCREASED BY 100 TIMES
 *  T=         - A TIME OF 172800.0 SECONDS REQUESTED
 *  DUMP=N     - RESTART FILE WRITTEN EVERY  7200.000 SECONDS
 *  MULLIK     - THE MULLIKEN ANALYSIS TO BE PERFORMED
 *******************************************************************************
pm6 mullik precise charge=0
 title O 0

   ATOM   CHEMICAL          X               Y               Z
  NUMBER   SYMBOL      (ANGSTROMS)     (ANGSTROMS)     (ANGSTROMS)

     1       O         -0.00420307  *   0.36044714  *   0.00000000  *
     2       H          0.82521629  *  -0.17885589  *   0.00000000  *
     3       H         -0.82101322  *  -0.18159125  *   0.00000000  *



          CARTESIAN COORDINATES

    NO.       ATOM           X           Y           Z

     1         O         -0.0042      0.3604      0.0000
     2         H          0.8252     -0.1789      0.0000
     3         H         -0.8210     -0.1816      0.0000

 General Reference for PM6:
 "Optimization of Parameters for Semiempirical Methods V: Modification of NDDO Approximations
 and Application to 70 Elements", J. J. P. Stewart, J. Mol. Mod., 13, 1173-1213 (2007)
 URL: http://www.springerlink.com/content/ar33482301010477/fulltext.pdf

           Empirical Formula: H2 O  =     3 atoms



      MOLECULAR POINT GROUP   :   C2v


      RHF CALCULATION, NO. OF DOUBLY OCCUPIED LEVELS = 4


          Geometry optimization using EF

          DIAGONAL MATRIX USED AS START HESSIAN

 CYCLE:     1 TIME:   0.004 TIME LEFT:  2.00D  GRAD.:    39.424 HEAT: -52.72988
 CYCLE:     2 TIME:   0.000 TIME LEFT:  2.00D  GRAD.:    19.002 HEAT: -53.85949
 CYCLE:     3 TIME:   0.000 TIME LEFT:  2.00D  GRAD.:     6.302 HEAT: -54.25761
 CYCLE:     4 TIME:   0.000 TIME LEFT:  2.00D  GRAD.:     3.093 HEAT: -54.29653
 CYCLE:     5 TIME:   0.000 TIME LEFT:  2.00D  GRAD.:     0.255 HEAT: -54.30630
 CYCLE:     6 TIME:   0.000 TIME LEFT:  2.00D  GRAD.:     0.003 HEAT: -54.30636

     GRADIENT =  0.00271 IS LESS THAN CUTOFF =  0.05000



 -------------------------------------------------------------------------------
 pm6 mullik precise charge=0
 title O 0



     GEOMETRY OPTIMISED USING EIGENVECTOR FOLLOWING (EF).
     SCF FIELD WAS ACHIEVED


                              PM6 CALCULATION
                                                       MOPAC2016 (Version: 19.179L)
                                                       Sat Aug 29 12:04:39 2020




          FINAL HEAT OF FORMATION =        -54.30636 KCAL/MOL =    -227.21780 KJ/MOL


          TOTAL ENERGY            =       -319.07752 EV
          ELECTRONIC ENERGY       =       -458.40560 EV  POINT GROUP:     C2v
          CORE-CORE REPULSION     =        139.32807 EV
          COSMO AREA              =         42.45 SQUARE ANGSTROMS
          COSMO VOLUME            =         25.17 CUBIC ANGSTROMS

          GRADIENT NORM           =          0.00271 = 0.00157 PER ATOM
          IONIZATION POTENTIAL    =         11.906196 EV
          HOMO LUMO ENERGIES (EV) =        -11.906  4.068
          NO. OF FILLED LEVELS    =          4
          MOLECULAR WEIGHT        =         18.0152

          MOLECULAR DIMENSIONS (Angstroms)

            Atom       Atom       Distance
            H     3    H     2     1.53109
            H     2    O     1     0.56056
            O     1    H     2     0.00000


          SCF CALCULATIONS        =          7

          WALL-CLOCK TIME         =          0.008 SECONDS
          COMPUTATION TIME        =          0.004 SECONDS




   ATOM   CHEMICAL          X               Y               Z
  NUMBER   SYMBOL      (ANGSTROMS)     (ANGSTROMS)     (ANGSTROMS)

     1       O         -0.00282663  *   0.36709367  *   0.00000000  *
     2       H          0.76489972  *  -0.19047745  *   0.00000000  *
     3       H         -0.76618069  *  -0.19645092  *   0.00000000  *

                             CARTESIAN COORDINATES

   1    O       -0.002826630     0.367093670     0.000000000
   2    H        0.764899715    -0.190477449     0.000000000
   3    H       -0.766180695    -0.196450921     0.000000000


           Empirical Formula: H2 O  =     3 atoms



      MOLECULAR POINT GROUP   :   C2v


                  EIGENVALUES
 -30.40536 -18.98833 -14.10927 -11.90620   4.06800   6.04093


              NET ATOMIC CHARGES AND DIPOLE CONTRIBUTIONS

  ATOM NO.   TYPE          CHARGE      No. of ELECS.   s-Pop       p-Pop
    1          O          -0.618784        6.6188     1.75977     4.85901
    2          H           0.309392        0.6906     0.69061
    3          H           0.309392        0.6906     0.69061
 DIPOLE           X         Y         Z       TOTAL
 POINT-CHG.     0.006    -1.666     0.000     1.666
 HYBRID         0.002    -0.402     0.000     0.402
 SUM            0.008    -2.068     0.000     2.068


          ATOMIC ORBITAL ELECTRON POPULATIONS

     Atom    s        px        py        pz
    1  O   1.75977   1.32156   1.53746   2.00000
    2  H   0.69061
    3  H   0.69061

           MULLIKEN POPULATION ANALYSIS



        MULLIKEN POPULATIONS AND CHARGES

      NO.  ATOM   POPULATION      CHARGE
        1    O     6.672834     -0.672834
        2    H     0.663583      0.336417
        3    H     0.663583      0.336417
 *******************************************************************************
 ** Site#: 21704        For non-commercial use only    Version 19.179L 64BITS **
 *******************************************************************************
 ** Cite this program as: MOPAC2016, Version: 19.179L, James J. P. Stewart,   **
 ** Stewart Computational Chemistry, web-site: HTTP://OpenMOPAC.net.          **
 *******************************************************************************
 **                                                                           **
 **                                MOPAC2016                                  **
 **                                                                           **
 *******************************************************************************

                              PM6 CALCULATION RESULTS

 *******************************************************************************
 *  CALCULATION DONE:                                Sat Aug 29 12:04:39 2020  *
 *  PM6        - The PM6 Hamiltonian to be used
 *
 *
 *
 *                 CHARGE ON SYSTEM = 0
 *
 *
 *
 *  PRECISE    - CRITERIA TO BE INCREASED BY 100 TIMES
 *  T=         - A TIME OF 172800.0 SECONDS REQUESTED
 *  DUMP=N     - RESTART FILE WRITTEN EVERY  7200.000 SECONDS
 *  MULLIK     - THE MULLIKEN ANALYSIS TO BE PERFORMED
 *******************************************************************************
pm6 mullik precise charge=0
 title N 1

   ATOM   CHEMICAL          X               Y               Z
  NUMBER   SYMBOL      (ANGSTROMS)     (ANGSTROMS)     (ANGSTROMS)

     1       N         -0.01360138  *   0.00262365  *   0.26827589  *
     2       H          0.92748247  *  -0.29746023  *  -0.08603823  *
     3       H         -0.72321915  *  -0.68018324  *  -0.09147171  *
     4       H         -0.19066193  *   0.97501982  *  -0.09076594  *



          CARTESIAN COORDINATES

    NO.       ATOM           X           Y           Z

     1         N         -0.0136      0.0026      0.2683
     2         H          0.9275     -0.2975     -0.0860
     3         H         -0.7232     -0.6802     -0.0915
     4         H         -0.1907      0.9750     -0.0908

 General Reference for PM6:
 "Optimization of Parameters for Semiempirical Methods V: Modification of NDDO Approximations
 and Application to 70 Elements", J. J. P. Stewart, J. Mol. Mod., 13, 1173-1213 (2007)
 URL: http://www.springerlink.com/content/ar33482301010477/fulltext.pdf

           Empirical Formula: H3 N  =     4 atoms



      MOLECULAR POINT GROUP   :   Cs


      RHF CALCULATION, NO. OF DOUBLY OCCUPIED LEVELS = 4


          Geometry optimization using EF

          DIAGONAL MATRIX USED AS START HESSIAN

 CYCLE:     1 TIME:   0.000 TIME LEFT:  2.00D  GRAD.:    56.264 HEAT:-0.7848322
 CYCLE:     2 TIME:   0.000 TIME LEFT:  2.00D  GRAD.:    35.936 HEAT: -2.032678
 CYCLE:     3 TIME:   0.000 TIME LEFT:  2.00D  GRAD.:    10.476 HEAT: -3.035806
 CYCLE:     4 TIME:   0.000 TIME LEFT:  2.00D  GRAD.:    11.948 HEAT: -3.077018
 CYCLE:     5 TIME:   0.000 TIME LEFT:  2.00D  GRAD.:     2.125 HEAT: -3.136086
 CYCLE:     6 TIME:   0.000 TIME LEFT:  2.00D  GRAD.:     0.993 HEAT: -3.139942
 CYCLE:     7 TIME:   0.000 TIME LEFT:  2.00D  GRAD.:     0.223 HEAT: -3.141445
 CYCLE:     8 TIME:   0.000 TIME LEFT:  2.00D  GRAD.:     0.068 HEAT: -3.141488
 CYCLE:     9 TIME:   0.000 TIME LEFT:  2.00D  GRAD.:     0.036 HEAT: -3.141492

     GRADIENT =  0.03593 IS LESS THAN CUTOFF =  0.05000



 -------------------------------------------------------------------------------
 pm6 mullik precise charge=0
 title N 1



     GEOMETRY OPTIMISED USING EIGENVECTOR FOLLOWING (EF).
     SCF FIELD WAS ACHIEVED


                              PM6 CALCULATION
                                                       MOPAC2016 (Version: 19.179L)
                                                       Sat Aug 29 12:04:39 2020




          FINAL HEAT OF FORMATION =         -3.14149 KCAL/MOL =     -13.14400 KJ/MOL


          TOTAL ENERGY            =       -220.50677 EV
          ELECTRONIC ENERGY       =       -409.17567 EV  POINT GROUP:     C3v
          CORE-CORE REPULSION     =        188.66890 EV
          COSMO AREA              =         47.53 SQUARE ANGSTROMS
          COSMO VOLUME            =         29.85 CUBIC ANGSTROMS

          GRADIENT NORM           =          0.03593 = 0.01796 PER ATOM
          IONIZATION POTENTIAL    =         10.098728 EV
          HOMO LUMO ENERGIES (EV) =        -10.099  4.385
          NO. OF FILLED LEVELS    =          4
          MOLECULAR WEIGHT        =         17.0304

          MOLECULAR DIMENSIONS (Angstroms)

            Atom       Atom       Distance
            H     4    H     2     1.62499
            H     3    H     2     1.40714
            H     4    N     1     0.36236


          SCF CALCULATIONS        =         10

          WALL-CLOCK TIME         =          0.016 SECONDS
          COMPUTATION TIME        =          0.012 SECONDS




   ATOM   CHEMICAL          X               Y               Z
  NUMBER   SYMBOL      (ANGSTROMS)     (ANGSTROMS)     (ANGSTROMS)

     1       N         -0.00690532  *   0.00124453  *   0.27034540  *
     2       H          0.88935791  *  -0.28625476  *  -0.08389201  *
     3       H         -0.69891843  *  -0.62906995  *  -0.09737635  *
     4       H         -0.20180005  *   0.91784221  *  -0.09472236  *

                             CARTESIAN COORDINATES

   1    N       -0.006905319     0.001244533     0.270345396
   2    H        0.889357908    -0.286254761    -0.083892014
   3    H       -0.698918431    -0.629069951    -0.097376348
   4    H       -0.201800051     0.917842212    -0.094722359


           Empirical Formula: H3 N  =     4 atoms



      MOLECULAR POINT GROUP   :   C3v


                  EIGENVALUES
 -31.03052 -16.18684 -16.18598 -10.09873   4.38471   6.81430   6.81472


              NET ATOMIC CHARGES AND DIPOLE CONTRIBUTIONS

  ATOM NO.   TYPE          CHARGE      No. of ELECS.   s-Pop       p-Pop
    1          N          -0.594885        5.5949     1.58374     4.01115
    2          H           0.198308        0.8017     0.80169
    3          H           0.198282        0.8017     0.80172
    4          H           0.198295        0.8017     0.80170
 DIPOLE           X         Y         Z       TOTAL
 POINT-CHG.     0.009    -0.001    -1.035     1.035
 HYBRID         0.011    -0.001    -1.214     1.214
 SUM            0.020    -0.002    -2.250     2.250


          ATOMIC ORBITAL ELECTRON POPULATIONS

     Atom    s        px        py        pz
    1  N   1.58374   1.16946   1.16944   1.67225
    2  H   0.80169
    3  H   0.80172
    4  H   0.80170

           MULLIKEN POPULATION ANALYSIS



        MULLIKEN POPULATIONS AND CHARGES

      NO.  ATOM   POPULATION      CHARGE
        1    N     5.752552     -0.752552
        2    H     0.749136      0.250864
        3    H     0.749163      0.250837
        4    H     0.749149      0.250851
 *******************************************************************************
 ** Site#: 21704        For non-commercial use only    Version 19.179L 64BITS **
 *******************************************************************************
 ** Cite this program as: MOPAC2016, Version: 19.179L, James J. P. Stewart,   **
 ** Stewart Computational Chemistry, web-site: HTTP://OpenMOPAC.net.          **
 *******************************************************************************
 **                                                                           **
 **                                MOPAC2016                                  **
 **                                                                           **
 *******************************************************************************

                              PM6 CALCULATION RESULTS

 *******************************************************************************
 *  CALCULATION DONE:                                Sat Aug 29 12:04:39 2020  *
 *  PM6        - The PM6 Hamiltonian to be used
 *
 *
 *
 *                 CHARGE ON SYSTEM = 0
 *
 *
 *
 *  PRECISE    - CRITERIA TO BE INCREASED BY 100 TIMES
 *  T=         - A TIME OF 172800.0 SECONDS REQUESTED
 *  DUMP=N     - RESTART FILE WRITTEN EVERY  7200.000 SECONDS
 *  MULLIK     - THE MULLIKEN ANALYSIS TO BE PERFORMED
 *******************************************************************************
pm6 mullik precise charge=0
 title CC 2

   ATOM   CHEMICAL          X               Y               Z
  NUMBER   SYMBOL      (ANGSTROMS)     (ANGSTROMS)     (ANGSTROMS)

     1       C          0.01000000  *   0.00212415  *  -0.00221581  *
     2       C          0.02000000  *  -0.02429578  *   0.08027002  *
     3       H          0.99484829  *   0.25697730  *  -1.06988329  *
     4       H          1.20129631  *  -0.99884957  *   0.16763888  *
     5       H          1.20263231  *   0.77928618  *   0.62515197  *
     6       H         -1.14885685  *  -0.10229723  *   1.09844863  *
     7       H         -1.11453298  *  -0.85802906  *  -0.54478667  *
     8       H         -1.11631961  *   0.94508402  *  -0.35462374  *



          CARTESIAN COORDINATES

    NO.       ATOM           X           Y           Z

     1         C          0.0100      0.0021     -0.0022
     2         C          0.0200     -0.0243      0.0803
     3         H          0.9948      0.2570     -1.0699
     4         H          1.2013     -0.9988      0.1676
     5         H          1.2026      0.7793      0.6252
     6         H         -1.1489     -0.1023      1.0984
     7         H         -1.1145     -0.8580     -0.5448
     8         H         -1.1163      0.9451     -0.3546

 General Reference for PM6:
 "Optimization of Parameters for Semiempirical Methods V: Modification of NDDO Approximations
 and Application to 70 Elements", J. J. P. Stewart, J. Mol. Mod., 13, 1173-1213 (2007)
 URL: http://www.springerlink.com/content/ar33482301010477/fulltext.pdf

           Empirical Formula: C2 H6  =     8 atoms



      MOLECULAR POINT GROUP   :   C1


      RHF CALCULATION, NO. OF DOUBLY OCCUPIED LEVELS = 7


          ATOMS     2 AND     1 ARE SEPARATED BY 0.0872 ANGSTROMS.

          TO CONTINUE CALCULATION SPECIFY "GEO-OK"

   NOTE THAT THE ATOM NUMBERS CORRESPOND TO THE 'CARTESIAN COORDINATES' ATOM LIST.

          GEOMETRY IN ERROR.  TO CONTINUE CALCULATION SPECIFY 'GEO-OK'.
 *******************************************************************************
 ** Site#: 21704        For non-commercial use only    Version 19.179L 64BITS **
 *******************************************************************************
 ** Cite this program as: MOPAC2016, Version: 19.179L, James J. P. Stewart,   **
 ** Stewart Computational Chemistry, web-site: HTTP://OpenMOPAC.net.          **
 *******************************************************************************
 **                                                                           **
 **                                MOPAC2016                                  **
 **                                                                           **
 *******************************************************************************

                              PM6 CALCULATION RESULTS

 *******************************************************************************
 *  CALCULATION DONE:                                Sat Aug 29 12:04:39 2020  *
 *  PM6        - The PM6 Hamiltonian to be used
 *
 *
 *
 *                 CHARGE ON SYSTEM = 0
 *
 *
 *
 *  PRECISE    - CRITERIA TO BE INCREASED BY 100 TIMES
 *  T=         - A TIME OF 172800.0 SECONDS REQUESTED
 *  DUMP=N     - RESTART FILE WRITTEN EVERY  7200.000 SECONDS
 *  MULLIK     - THE MULLIKEN ANALYSIS TO BE PERFORMED
 *******************************************************************************
pm6 mullik precise charge=0
 title CC 3

   ATOM   CHEMICAL          X               Y               Z
  NUMBER   SYMBOL      (ANGSTROMS)     (ANGSTROMS)     (ANGSTROMS)

     1       C         -0.76946415  *  -0.03067327  *   0.02380023  *
     2       C          0.72750101  *   0.02595488  *   0.01343321  *
     3       H         -1.08061302  *  -0.92336011  *  -0.57499818  *
     4       H         -1.20748946  *  -0.11165878  *   1.04023503  *
     5       H         -1.15809405  *   0.90166850  *  -0.45622724  *
     6       H          1.18402780  *   0.03964199  *   1.02010465  *
     7       H          1.19065528  *  -0.83506564  *  -0.53906886  *
     8       H          1.11347658  *   0.93349244  *  -0.52727883  *



          CARTESIAN COORDINATES

    NO.       ATOM           X           Y           Z

     1         C         -0.7695     -0.0307      0.0238
     2         C          0.7275      0.0260      0.0134
     3         H         -1.0806     -0.9234     -0.5750
     4         H         -1.2075     -0.1117      1.0402
     5         H         -1.1581      0.9017     -0.4562
     6         H          1.1840      0.0396      1.0201
     7         H          1.1907     -0.8351     -0.5391
     8         H          1.1135      0.9335     -0.5273

 General Reference for PM6:
 "Optimization of Parameters for Semiempirical Methods V: Modification of NDDO Approximations
 and Application to 70 Elements", J. J. P. Stewart, J. Mol. Mod., 13, 1173-1213 (2007)
 URL: http://www.springerlink.com/content/ar33482301010477/fulltext.pdf

           Empirical Formula: C2 H6  =     8 atoms



      MOLECULAR POINT GROUP   :   C2v


      RHF CALCULATION, NO. OF DOUBLY OCCUPIED LEVELS = 7


          Geometry optimization using EF

          DIAGONAL MATRIX USED AS START HESSIAN

 CYCLE:     1 TIME:   0.000 TIME LEFT:  2.00D  GRAD.:    52.444 HEAT: -13.07899
 CYCLE:     2 TIME:   0.000 TIME LEFT:  2.00D  GRAD.:    24.751 HEAT: -14.19287
 CYCLE:     3 TIME:   0.000 TIME LEFT:  2.00D  GRAD.:    14.496 HEAT: -14.46167
 CYCLE:     4 TIME:   0.004 TIME LEFT:  2.00D  GRAD.:    17.715 HEAT: -14.57754
 CYCLE:     5 TIME:   0.000 TIME LEFT:  2.00D  GRAD.:    10.790 HEAT: -14.71625
 CYCLE:     6 TIME:   0.000 TIME LEFT:  2.00D  GRAD.:     6.896 HEAT: -14.76773
 CYCLE:     7 TIME:   0.000 TIME LEFT:  2.00D  GRAD.:     7.451 HEAT: -14.79716
 CYCLE:     8 TIME:   0.000 TIME LEFT:  2.00D  GRAD.:     5.116 HEAT: -14.83155
 CYCLE:     9 TIME:   0.004 TIME LEFT:  2.00D  GRAD.:     2.619 HEAT: -14.85060
 CYCLE:    10 TIME:   0.000 TIME LEFT:  2.00D  GRAD.:     2.217 HEAT: -14.85841
 CYCLE:    11 TIME:   0.000 TIME LEFT:  2.00D  GRAD.:     1.780 HEAT: -14.86174
 CYCLE:    12 TIME:   0.000 TIME LEFT:  2.00D  GRAD.:     1.158 HEAT: -14.86417
 CYCLE:    13 TIME:   0.000 TIME LEFT:  2.00D  GRAD.:     1.002 HEAT: -14.86691
 CYCLE:    14 TIME:   0.000 TIME LEFT:  2.00D  GRAD.:     0.599 HEAT: -14.86762
 CYCLE:    15 TIME:   0.000 TIME LEFT:  2.00D  GRAD.:     0.337 HEAT: -14.86803
 CYCLE:    16 TIME:   0.000 TIME LEFT:  2.00D  GRAD.:     0.456 HEAT: -14.86851
 CYCLE:    17 TIME:   0.004 TIME LEFT:  2.00D  GRAD.:     0.774 HEAT: -14.86920
 CYCLE:    18 TIME:   0.000 TIME LEFT:  2.00D  GRAD.:     1.989 HEAT: -14.87245
 CYCLE:    19 TIME:   0.000 TIME LEFT:  2.00D  GRAD.:     6.063 HEAT: -14.88083
 CYCLE:    20 TIME:   0.000 TIME LEFT:  2.00D  GRAD.:     5.523 HEAT: -14.94045
 CYCLE:    21 TIME:   0.004 TIME LEFT:  2.00D  GRAD.:     4.839 HEAT: -14.96380
 CYCLE:    22 TIME:   0.000 TIME LEFT:  2.00D  GRAD.:     4.925 HEAT: -14.96536
 CYCLE:    23 TIME:   0.000 TIME LEFT:  2.00D  GRAD.:     3.108 HEAT: -14.97408
 CYCLE:    24 TIME:   0.000 TIME LEFT:  2.00D  GRAD.:    11.303 HEAT: -15.12058
 CYCLE:    25 TIME:   0.000 TIME LEFT:  2.00D  GRAD.:    15.270 HEAT: -15.14371
 CYCLE:    26 TIME:   0.004 TIME LEFT:  2.00D  GRAD.:    16.101 HEAT: -15.18182
 CYCLE:    27 TIME:   0.000 TIME LEFT:  2.00D  GRAD.:     4.601 HEAT: -15.36003
 CYCLE:    28 TIME:   0.000 TIME LEFT:  2.00D  GRAD.:     2.766 HEAT: -15.42460
 CYCLE:    29 TIME:   0.000 TIME LEFT:  2.00D  GRAD.:     3.144 HEAT: -15.50466
 CYCLE:    30 TIME:   0.000 TIME LEFT:  2.00D  GRAD.:     6.324 HEAT: -15.62501
 CYCLE:    31 TIME:   0.000 TIME LEFT:  2.00D  GRAD.:    11.073 HEAT: -15.68948
 CYCLE:    32 TIME:   0.000 TIME LEFT:  2.00D  GRAD.:     6.793 HEAT: -15.73540
 CYCLE:    33 TIME:   0.004 TIME LEFT:  2.00D  GRAD.:     1.899 HEAT: -15.79145
 CYCLE:    34 TIME:   0.000 TIME LEFT:  2.00D  GRAD.:     3.138 HEAT: -15.80539
 CYCLE:    35 TIME:   0.000 TIME LEFT:  2.00D  GRAD.:     1.113 HEAT: -15.81255
 CYCLE:    36 TIME:   0.000 TIME LEFT:  2.00D  GRAD.:     0.417 HEAT: -15.81489
 CYCLE:    37 TIME:   0.000 TIME LEFT:  2.00D  GRAD.:     0.210 HEAT: -15.81524
 CYCLE:    38 TIME:   0.000 TIME LEFT:  2.00D  GRAD.:     0.133 HEAT: -15.81529
 CYCLE:    39 TIME:   0.000 TIME LEFT:  2.00D  GRAD.:     0.119 HEAT: -15.81533
 CYCLE:    40 TIME:   0.004 TIME LEFT:  2.00D  GRAD.:     0.090 HEAT: -15.81534
 CYCLE:    41 TIME:   0.000 TIME LEFT:  2.00D  GRAD.:     0.049 HEAT: -15.81535

     GRADIENT =  0.04932 IS LESS THAN CUTOFF =  0.05000



 -------------------------------------------------------------------------------
 pm6 mullik precise charge=0
 title CC 3



     GEOMETRY OPTIMISED USING EIGENVECTOR FOLLOWING (EF).
     SCF FIELD WAS ACHIEVED


                              PM6 CALCULATION
                                                       MOPAC2016 (Version: 19.179L)
                                                       Sat Aug 29 12:04:39 2020




          FINAL HEAT OF FORMATION =        -15.81535 KCAL/MOL =     -66.17144 KJ/MOL


          TOTAL ENERGY            =       -326.94787 EV
          ELECTRONIC ENERGY       =       -946.23641 EV  POINT GROUP:     D3d
          CORE-CORE REPULSION     =        619.28854 EV
          COSMO AREA              =         75.82 SQUARE ANGSTROMS
          COSMO VOLUME            =         57.37 CUBIC ANGSTROMS

          GRADIENT NORM           =          0.04932 = 0.01744 PER ATOM
          IONIZATION POTENTIAL    =         11.919037 EV
          HOMO LUMO ENERGIES (EV) =        -11.919  4.576
          NO. OF FILLED LEVELS    =          7
          MOLECULAR WEIGHT        =         30.0694

          MOLECULAR DIMENSIONS (Angstroms)

            Atom       Atom       Distance
            H     7    H     5     3.09180
            H     8    H     4     2.90040
            H     3    H     6     2.80264


          SCF CALCULATIONS        =         51

          WALL-CLOCK TIME         =          0.047 SECONDS
          COMPUTATION TIME        =          0.044 SECONDS




   ATOM   CHEMICAL          X               Y               Z
  NUMBER   SYMBOL      (ANGSTROMS)     (ANGSTROMS)     (ANGSTROMS)

     1       C         -0.76760458  *  -0.03070865  *   0.00855928  *
     2       C          0.75165717  *   0.02888473  *   0.00560527  *
     3       H         -1.15129984  *  -0.52439286  *  -0.89207557  *
     4       H         -1.14544996  *  -0.58743990  *   0.87422089  *
     5       H         -1.20817958  *   0.97261918  *   0.04569607  *
     6       H          1.13531477  *   0.52346442  *   0.90577307  *
     7       H          1.19237783  *  -0.97436617  *  -0.03055004  *
     8       H          1.12939155  *   0.58484176  *  -0.86066220  *

                             CARTESIAN COORDINATES

   1    C       -0.767604576    -0.030708652     0.008559275
   2    C        0.751657167     0.028884732     0.005605274
   3    H       -1.151299842    -0.524392860    -0.892075571
   4    H       -1.145449956    -0.587439899     0.874220888
   5    H       -1.208179575     0.972619182     0.045696071
   6    H        1.135314766     0.523464424     0.905773070
   7    H        1.192377826    -0.974366170    -0.030550043
   8    H        1.129391555     0.584841761    -0.860662202


           Empirical Formula: C2 H6  =     8 atoms



      MOLECULAR POINT GROUP   :   D3d


                  EIGENVALUES
 -27.04950 -21.69811 -14.96337 -14.96264 -13.08000 -11.91962 -11.91904   4.57634
   5.72368   5.72390   6.23925   6.23948   6.91773   6.92907


              NET ATOMIC CHARGES AND DIPOLE CONTRIBUTIONS

  ATOM NO.   TYPE          CHARGE      No. of ELECS.   s-Pop       p-Pop
    1          C          -0.422916        4.4229     1.07566     3.34726
    2          C          -0.422916        4.4229     1.07566     3.34726
    3          H           0.140968        0.8590     0.85903
    4          H           0.140975        0.8590     0.85903
    5          H           0.140973        0.8590     0.85903
    6          H           0.140968        0.8590     0.85903
    7          H           0.140970        0.8590     0.85903
    8          H           0.140978        0.8590     0.85902
 DIPOLE           X         Y         Z       TOTAL
 POINT-CHG.    -0.000     0.000    -0.000     0.000
 HYBRID        -0.000    -0.000     0.000     0.000
 SUM           -0.000     0.000    -0.000     0.000


          ATOMIC ORBITAL ELECTRON POPULATIONS

     Atom    s        px        py        pz
    1  C   1.07566   1.02125   1.16289   1.16312
    2  C   1.07566   1.02124   1.16290   1.16311
    3  H   0.85903
    4  H   0.85903
    5  H   0.85903
    6  H   0.85903
    7  H   0.85903
    8  H   0.85902

           MULLIKEN POPULATION ANALYSIS



        MULLIKEN POPULATIONS AND CHARGES

      NO.  ATOM   POPULATION      CHARGE
        1    C     4.545733     -0.545733
        2    C     4.545731     -0.545731
        3    H     0.818093      0.181907
        4    H     0.818084      0.181916
        5    H     0.818090      0.181910
        6    H     0.818094      0.181906
        7    H     0.818088      0.181912
        8    H     0.818086      0.181914
 *******************************************************************************
 ** Site#: 21704        For non-commercial use only    Version 19.179L 64BITS **
 *******************************************************************************
 ** Cite this program as: MOPAC2016, Version: 19.179L, James J. P. Stewart,   **
 ** Stewart Computational Chemistry, web-site: HTTP://OpenMOPAC.net.          **
 *******************************************************************************
 **                                                                           **
 **                                MOPAC2016                                  **
 **                                                                           **
 *******************************************************************************

                              PM6 CALCULATION RESULTS

 *******************************************************************************
 *  CALCULATION DONE:                                Sat Aug 29 12:04:39 2020  *
 *  PM6        - The PM6 Hamiltonian to be used
 *
 *
 *
 *                 CHARGE ON SYSTEM = 0
 *
 *
 *
 *  PRECISE    - CRITERIA TO BE INCREASED BY 100 TIMES
 *  T=         - A TIME OF 172800.0 SECONDS REQUESTED
 *  DUMP=N     - RESTART FILE WRITTEN EVERY  7200.000 SECONDS
 *  MULLIK     - THE MULLIKEN ANALYSIS TO BE PERFORMED
 *******************************************************************************
pm6 mullik precise charge=0
 title CCO 4

   ATOM   CHEMICAL          X               Y               Z
  NUMBER   SYMBOL      (ANGSTROMS)     (ANGSTROMS)     (ANGSTROMS)

     1       C         -0.89891065  *  -0.29196830  *   0.20947406  *
     2       C          0.37941306  *   0.48751665  *   0.04254804  *
     3       O          1.46874361  *  -0.37951745  *   0.08856262  *
     4       H         -1.78515184  *   0.30372508  *  -0.08605688  *
     5       H         -1.07173726  *  -0.65064192  *   1.22959850  *
     6       H         -0.85118298  *  -1.13628955  *  -0.52731833  *
     7       H          0.35063531  *   0.93150422  *  -0.97645419  *
     8       H          0.53356554  *   1.25202826  *   0.81735899  *
     9       H          1.87462522  *  -0.51635699  *  -0.79771280  *



          CARTESIAN COORDINATES

    NO.       ATOM           X           Y           Z

     1         C         -0.8989     -0.2920      0.2095
     2         C          0.3794      0.4875      0.0425
     3         O          1.4687     -0.3795      0.0886
     4         H         -1.7852      0.3037     -0.0861
     5         H         -1.0717     -0.6506      1.2296
     6         H         -0.8512     -1.1363     -0.5273
     7         H          0.3506      0.9315     -0.9765
     8         H          0.5336      1.2520      0.8174
     9         H          1.8746     -0.5164     -0.7977

 General Reference for PM6:
 "Optimization of Parameters for Semiempirical Methods V: Modification of NDDO Approximations
 and Application to 70 Elements", J. J. P. Stewart, J. Mol. Mod., 13, 1173-1213 (2007)
 URL: http://www.springerlink.com/content/ar33482301010477/fulltext.pdf

           Empirical Formula: C2 H6 O  =     9 atoms



      MOLECULAR POINT GROUP   :   C1


      RHF CALCULATION, NO. OF DOUBLY OCCUPIED LEVELS = 10


          Geometry optimization using EF

          DIAGONAL MATRIX USED AS START HESSIAN

 CYCLE:     1 TIME:   0.000 TIME LEFT:  2.00D  GRAD.:    68.232 HEAT: -52.41992
 CYCLE:     2 TIME:   0.004 TIME LEFT:  2.00D  GRAD.:    41.349 HEAT: -53.81512
 CYCLE:     3 TIME:   0.000 TIME LEFT:  2.00D  GRAD.:    37.018 HEAT: -54.25805
 CYCLE:     4 TIME:   0.000 TIME LEFT:  2.00D  GRAD.:    50.611 HEAT: -54.28140
 CYCLE:     5 TIME:   0.000 TIME LEFT:  2.00D  GRAD.:    38.075 HEAT: -54.59680
 CYCLE:     6 TIME:   0.004 TIME LEFT:  2.00D  GRAD.:    21.868 HEAT: -55.20150
 CYCLE:     7 TIME:   0.000 TIME LEFT:  2.00D  GRAD.:    10.839 HEAT: -55.40005
 CYCLE:     8 TIME:   0.000 TIME LEFT:  2.00D  GRAD.:    12.417 HEAT: -55.49152
 CYCLE:     9 TIME:   0.000 TIME LEFT:  2.00D  GRAD.:     8.563 HEAT: -55.63333
 CYCLE:    10 TIME:   0.004 TIME LEFT:  2.00D  GRAD.:     8.082 HEAT: -55.74610
 CYCLE:    11 TIME:   0.000 TIME LEFT:  2.00D  GRAD.:     9.543 HEAT: -55.80623
 CYCLE:    12 TIME:   0.000 TIME LEFT:  2.00D  GRAD.:     7.851 HEAT: -55.86203
 CYCLE:    13 TIME:   0.000 TIME LEFT:  2.00D  GRAD.:     7.128 HEAT: -55.94845
 CYCLE:    14 TIME:   0.000 TIME LEFT:  2.00D  GRAD.:     7.851 HEAT: -56.07550
 CYCLE:    15 TIME:   0.004 TIME LEFT:  2.00D  GRAD.:     9.311 HEAT: -56.19843
 CYCLE:    16 TIME:   0.000 TIME LEFT:  2.00D  GRAD.:     9.417 HEAT: -56.33701
 CYCLE:    17 TIME:   0.000 TIME LEFT:  2.00D  GRAD.:    10.493 HEAT: -56.57381
 CYCLE:    18 TIME:   0.000 TIME LEFT:  2.00D  GRAD.:     9.978 HEAT: -56.81888
 CYCLE:    19 TIME:   0.000 TIME LEFT:  2.00D  GRAD.:    10.051 HEAT: -56.91895
 CYCLE:    20 TIME:   0.004 TIME LEFT:  2.00D  GRAD.:    13.832 HEAT: -56.92174
 CYCLE:    21 TIME:   0.000 TIME LEFT:  2.00D  GRAD.:     6.755 HEAT: -57.06327
 CYCLE:    22 TIME:   0.000 TIME LEFT:  2.00D  GRAD.:     4.766 HEAT: -57.10633
 CYCLE:    23 TIME:   0.000 TIME LEFT:  2.00D  GRAD.:     6.850 HEAT: -57.17599
 CYCLE:    24 TIME:   0.000 TIME LEFT:  2.00D  GRAD.:     3.887 HEAT: -57.19663
 CYCLE:    25 TIME:   0.004 TIME LEFT:  2.00D  GRAD.:     1.458 HEAT: -57.21496
 CYCLE:    26 TIME:   0.000 TIME LEFT:  2.00D  GRAD.:     1.488 HEAT: -57.21948
 CYCLE:    27 TIME:   0.000 TIME LEFT:  2.00D  GRAD.:     1.252 HEAT: -57.22234
 CYCLE:    28 TIME:   0.000 TIME LEFT:  2.00D  GRAD.:     1.476 HEAT: -57.23038
 CYCLE:    29 TIME:   0.000 TIME LEFT:  2.00D  GRAD.:     1.544 HEAT: -57.23491
 CYCLE:    30 TIME:   0.004 TIME LEFT:  2.00D  GRAD.:     2.339 HEAT: -57.24458
 CYCLE:    31 TIME:   0.000 TIME LEFT:  2.00D  GRAD.:     1.900 HEAT: -57.24886
 CYCLE:    32 TIME:   0.000 TIME LEFT:  2.00D  GRAD.:     1.970 HEAT: -57.27411
 CYCLE:    33 TIME:   0.000 TIME LEFT:  2.00D  GRAD.:     2.103 HEAT: -57.28919
 CYCLE:    34 TIME:   0.000 TIME LEFT:  2.00D  GRAD.:     6.331 HEAT: -57.30320
 CYCLE:    35 TIME:   0.004 TIME LEFT:  2.00D  GRAD.:     2.769 HEAT: -57.32108
 CYCLE:    36 TIME:   0.000 TIME LEFT:  2.00D  GRAD.:     1.376 HEAT: -57.32919
 CYCLE:    37 TIME:   0.000 TIME LEFT:  2.00D  GRAD.:     1.873 HEAT: -57.33857
 CYCLE:    38 TIME:   0.000 TIME LEFT:  2.00D  GRAD.:     0.975 HEAT: -57.34325
 CYCLE:    39 TIME:   0.000 TIME LEFT:  2.00D  GRAD.:     0.753 HEAT: -57.34528
 CYCLE:    40 TIME:   0.004 TIME LEFT:  2.00D  GRAD.:     0.647 HEAT: -57.34573
 CYCLE:    41 TIME:   0.000 TIME LEFT:  2.00D  GRAD.:     0.463 HEAT: -57.34688
 CYCLE:    42 TIME:   0.000 TIME LEFT:  2.00D  GRAD.:     0.362 HEAT: -57.34728
 CYCLE:    43 TIME:   0.000 TIME LEFT:  2.00D  GRAD.:     0.428 HEAT: -57.34775
 CYCLE:    44 TIME:   0.000 TIME LEFT:  2.00D  GRAD.:     0.234 HEAT: -57.34789
 CYCLE:    45 TIME:   0.004 TIME LEFT:  2.00D  GRAD.:     0.060 HEAT: -57.34797
 CYCLE:    46 TIME:   0.000 TIME LEFT:  2.00D  GRAD.:     0.043 HEAT: -57.34799

     GRADIENT =  0.04346 IS LESS THAN CUTOFF =  0.05000



 -------------------------------------------------------------------------------
 pm6 mullik precise charge=0
 title CCO 4



     GEOMETRY OPTIMISED USING EIGENVECTOR FOLLOWING (EF).
     SCF FIELD WAS ACHIEVED


                              PM6 CALCULATION
                                                       MOPAC2016 (Version: 19.179L)
                                                       Sat Aug 29 12:04:39 2020




          FINAL HEAT OF FORMATION =        -57.34799 KCAL/MOL =    -239.94400 KJ/MOL


          TOTAL ENERGY            =       -618.45884 EV
          ELECTRONIC ENERGY       =      -1751.91728 EV  POINT GROUP:     C1
          CORE-CORE REPULSION     =       1133.45844 EV
          COSMO AREA              =         87.21 SQUARE ANGSTROMS
          COSMO VOLUME            =         69.20 CUBIC ANGSTROMS

          GRADIENT NORM           =          0.04346 = 0.01449 PER ATOM
          IONIZATION POTENTIAL    =         10.498580 EV
          HOMO LUMO ENERGIES (EV) =        -10.499  2.784
          NO. OF FILLED LEVELS    =         10
          MOLECULAR WEIGHT        =         46.0688

          MOLECULAR DIMENSIONS (Angstroms)

            Atom       Atom       Distance
            H     9    H     4     3.64959
            H     8    H     6     3.10387
            H     7    H     5     2.82391


          SCF CALCULATIONS        =         50

          WALL-CLOCK TIME         =          0.090 SECONDS
          COMPUTATION TIME        =          0.088 SECONDS




   ATOM   CHEMICAL          X               Y               Z
  NUMBER   SYMBOL      (ANGSTROMS)     (ANGSTROMS)     (ANGSTROMS)

     1       C         -0.89098470  *  -0.31485283  *   0.15132902  *
     2       C          0.36352961  *   0.52797525  *  -0.01681482  *
     3       O          1.55225321  *  -0.26526293  *   0.12526781  *
     4       H         -1.78917487  *   0.31024397  *   0.21461189  *
     5       H         -0.84097054  *  -0.91152131  *   1.07262697  *
     6       H         -1.03529633  *  -1.01349173  *  -0.67985538  *
     7       H          0.39623095  *   1.03523547  *  -0.99798704  *
     8       H          0.48062010  *   1.27487809  *   0.79227470  *
     9       H          1.53409409  *  -1.02725746  *  -0.48285067  *

                             CARTESIAN COORDINATES

   1    C       -0.890984696    -0.314852830     0.151329024
   2    C        0.363529607     0.527975251    -0.016814817
   3    O        1.552253210    -0.265262926     0.125267807
   4    H       -1.789174870     0.310243967     0.214611886
   5    H       -0.840970540    -0.911521309     1.072626973
   6    H       -1.035296331    -1.013491725    -0.679855378
   7    H        0.396230945     1.035235469    -0.997987035
   8    H        0.480620104     1.274878087     0.792274696
   9    H        1.534094087    -1.027257458    -0.482850672


           Empirical Formula: C2 H6 O  =     9 atoms



      MOLECULAR POINT GROUP   :   C1


                  EIGENVALUES
 -29.83887 -26.50769 -22.32139 -17.59776 -15.76051 -15.26493 -13.51024 -13.12167
 -11.97879 -10.49858   2.78386   3.91036   5.08448   5.38308   5.57401   5.67861
   6.01019   6.52221


              NET ATOMIC CHARGES AND DIPOLE CONTRIBUTIONS

  ATOM NO.   TYPE          CHARGE      No. of ELECS.   s-Pop       p-Pop
    1          C          -0.539955        4.5400     1.09225     3.44771
    2          C           0.052338        3.9477     1.09114     2.85652
    3          O          -0.556595        6.5566     1.81879     4.73780
    4          H           0.163867        0.8361     0.83613
    5          H           0.172884        0.8271     0.82712
    6          H           0.157565        0.8424     0.84244
    7          H           0.106324        0.8937     0.89368
    8          H           0.138110        0.8619     0.86189
    9          H           0.305462        0.6945     0.69454
 DIPOLE           X         Y         Z       TOTAL
 POINT-CHG.    -1.866     0.246    -0.879     2.077
 HYBRID         0.009    -0.458    -0.193     0.497
 SUM           -1.857    -0.212    -1.072     2.155


          ATOMIC ORBITAL ELECTRON POPULATIONS

     Atom    s        px        py        pz
    1  C   1.09225   1.10055   1.15338   1.19378
    2  C   1.09114   0.80565   0.93922   1.11165
    3  O   1.81879   1.50024   1.51340   1.72416
    4  H   0.83613
    5  H   0.82712
    6  H   0.84244
    7  H   0.89368
    8  H   0.86189
    9  H   0.69454

           MULLIKEN POPULATION ANALYSIS



        MULLIKEN POPULATIONS AND CHARGES

      NO.  ATOM   POPULATION      CHARGE
        1    C     4.684223     -0.684223
        2    C     4.009342     -0.009342
        3    O     6.597870     -0.597870
        4    H     0.791616      0.208384
        5    H     0.779146      0.220854
        6    H     0.797794      0.202206
        7    H     0.855319      0.144681
        8    H     0.818979      0.181021
        9    H     0.665711      0.334289

 ******************************************************************************
 *                                                                            *
 *     Error and normal termination messages reported in this calculation     *
 *                                                                            *
 * ATOMS     2 AND     1 ARE SEPARATED BY 0.0872 ANGSTROMS.                   *
 * GEOMETRY IN ERROR.  TO CONTINUE CALCULATION SPECIFY 'GEO-OK'.              *
 * JOB ENDED NORMALLY                                                         *
 *                                                                            *
 ******************************************************************************



 TOTAL JOB TIME:             0.18 SECONDS

 == MOPAC DONE ==
