      -----------------------------------------------------------
     |                   =====================                   |
     |                           x T B                           |
     |                   =====================                   |
     |                         S. Grimme                         |
     |          Mulliken Center for Theoretical Chemistry        |
     |                    University of Bonn                     |
      -----------------------------------------------------------

   * xtb version 6.3.3 (5b13467) compiled by 'ehlert@majestix' on 2020-09-17

   xtb is free software: you can redistribute it and/or modify it under
   the terms of the GNU Lesser General Public License as published by
   the Free Software Foundation, either version 3 of the License, or
   (at your option) any later version.

   xtb is distributed in the hope that it will be useful,
   but WITHOUT ANY WARRANTY; without even the implied warranty of
   MERCHANTABILITY or FITNESS FOR A PARTICULAR PURPOSE.  See the
   GNU Lesser General Public License for more details.

   Cite this work as:
   * C. Bannwarth, E. Caldeweyher, S. Ehlert, A. Hansen, P. Pracht,
     J. Seibert, S. Spicher, S. Grimme, WIREs Comput. Mol. Sci., 2020,
     e01493. DOI: 10.1002/wcms.1493

   for GFN2-xTB:
   * S. Grimme, C. Bannwarth, P. Shushkov, J. Chem. Theory Comput., 2017,
     13, 1989-2009. DOI: 10.1021/acs.jctc.7b00118
   for GFN1-xTB:
   * C. Bannwarth, S. Ehlert and S. Grimme., J. Chem. Theory Comput., 2019,
     15, 1652-1671. DOI: 10.1021/acs.jctc.8b01176
   for GFN0-xTB:
   * P. Pracht, E. Caldeweyher, S. Ehlert, S. Grimme, ChemRxiv, 2019, preprint.
     DOI: 10.26434/chemrxiv.8326202.v1
   for GFN-FF:
   * S. Spicher and S. Grimme, Angew. Chem. Int. Ed., 2020, 59, 15665-15673.
     DOI: 10.1002/anie.202004239

   for DFT-D4:
   * E. Caldeweyher, C. Bannwarth and S. Grimme, J. Chem. Phys., 2017,
     147, 034112. DOI: 10.1063/1.4993215
   * E. Caldeweyher, S. Ehlert, A. Hansen, H. Neugebauer, S. Spicher,
     C. Bannwarth and S. Grimme, J. Chem. Phys., 2019, 150, 154122.
     DOI: 10.1063/1.5090222
   * E. Caldeweyher, J.-M. Mewes, S. Ehlert and S. Grimme, Phys. Chem. Chem. Phys.
     2020, 22, 8499-8512. DOI: 10.1039/D0CP00502A

   for sTDA-xTB:
   * S. Grimme and C. Bannwarth, J. Chem. Phys., 2016, 145, 054103.
     DOI: 10.1063/1.4959605

   in the mass-spec context:
   * V. Asgeirsson, C. Bauer and S. Grimme, Chem. Sci., 2017, 8, 4879.
     DOI: 10.1039/c7sc00601b
   * J. Koopman and S. Grimme, ACS Omega 2019, 4, 12, 15120-15133.
     DOI: 10.1021/acsomega.9b02011

   for metadynamics refer to:
   * S. Grimme, J. Chem. Theory Comput., 2019, 155, 2847-2862
     DOI: 10.1021/acs.jctc.9b00143

   with help from (in alphabetical order)
   C. Bannwarth, F. Bohle, G. Brandenburg, E. Caldeweyher, M. Checinski,
   S. Dohm, S. Ehlert, S. Ehrlich, F. März, H. Neugebauer, J. Pisarek,
   P. Pracht, P. Shushkov, and S. Spicher.

 * started run on 2020/12/23 at 17:40:44.252

           -------------------------------------------------
          |                Calculation Setup                |
           -------------------------------------------------

          program call               : xtb chembl3586573.sdf
          hostname                   : chbscl-9-6
          coordinate file            : chembl3586573.sdf
          omp threads                :                     4
          number of atoms            :                    41
          number of electrons        :                   126
          charge                     :                     0
          spin                       :                   0.0
          first test random number   :      0.96244530324258

   ID    Z sym.   atoms
    1    6 C      1, 2, 4, 6, 8, 10-16, 18, 22, 23, 25
    2    7 N      3, 7, 9, 17, 19-21, 24
    3    8 O      5
    4    1 H      26-41

           -------------------------------------------------
          |                 G F N 2 - x T B                 |
           -------------------------------------------------

        Reference                      10.1021/acs.jctc.8b01176
      * Hamiltonian:
        H0-scaling (s, p, d)           1.850000    2.230000    2.230000
        zeta-weighting                 0.500000
      * Dispersion:
        s8                             2.700000
        a1                             0.520000
        a2                             5.000000
        s9                             5.000000
      * Repulsion:
        kExp                           1.500000    1.000000
        rExp                           1.000000
      * Coulomb:
        alpha                          2.000000
        third order                    shell-resolved
        anisotropic                    true
        a3                             3.000000
        a5                             4.000000
        cn-shift                       1.200000
        cn-exp                         4.000000
        max-rad                        5.000000


          ...................................................
          :                      SETUP                      :
          :.................................................:
          :  # basis functions                 116          :
          :  # atomic orbitals                 116          :
          :  # shells                           66          :
          :  # electrons                       126          :
          :  max. iterations                   250          :
          :  Hamiltonian                  GFN2-xTB          :
          :  restarted?                      false          :
          :  GBSA solvation                  false          :
          :  PC potential                    false          :
          :  electronic temp.          300.0000000     K    :
          :  accuracy                    1.0000000          :
          :  -> integral cutoff          0.2500000E+02      :
          :  -> integral neglect         0.1000000E-07      :
          :  -> SCF convergence          0.1000000E-05 Eh   :
          :  -> wf. convergence          0.1000000E-03 e    :
          :  Broyden damping             0.4000000          :
          ...................................................

 iter      E             dE          RMSdq      gap      omega  full diag
   1    -70.5584730 -0.705585E+02  0.425E+00    2.11       0.0  T
   2    -70.7046717 -0.146199E+00  0.277E+00    2.28       1.0  T
   3    -70.7287352 -0.240635E-01  0.148E+00    2.19       1.0  T
   4    -70.7380183 -0.928309E-02  0.410E-01    1.93       1.0  T
   5    -70.7434747 -0.545638E-02  0.115E-01    2.00       1.0  T
   6    -70.7435854 -0.110680E-03  0.596E-02    1.98       1.0  T
   7    -70.7436561 -0.707655E-04  0.191E-02    1.99       1.0  T
   8    -70.7436593 -0.317008E-05  0.911E-03    1.99       1.7  T
   9    -70.7436604 -0.109001E-05  0.350E-03    1.99       4.5  T
  10    -70.7436606 -0.181000E-06  0.154E-03    1.99      10.1  T
  11    -70.7436606 -0.535532E-07  0.710E-04    1.99      22.0  T
  12    -70.7436606 -0.800078E-08  0.343E-04    1.99      45.6  T

   *** convergence criteria satisfied after 12 iterations ***

         #    Occupation            Energy/Eh            Energy/eV
      -------------------------------------------------------------
         1        2.0000           -0.7137546             -19.4223
       ...           ...                  ...                  ...
        57        2.0000           -0.4101791             -11.1615
        58        2.0000           -0.4089342             -11.1277
        59        2.0000           -0.4036429             -10.9837
        60        2.0000           -0.3751822             -10.2092
        61        2.0000           -0.3707448             -10.0885
        62        2.0000           -0.3635471              -9.8926
        63        2.0000           -0.3540913              -9.6353 (HOMO)
        64                         -0.2808508              -7.6423 (LUMO)
        65                         -0.2674644              -7.2781
        66                         -0.2487986              -6.7702
        67                         -0.2366719              -6.4402
        68                         -0.2319485              -6.3116
       ...                                ...                  ...
       116                          0.7084624              19.2782
      -------------------------------------------------------------
                  HL-Gap            0.0732405 Eh            1.9930 eV
             Fermi-level           -0.3174710 Eh           -8.6388 eV

 SCC (total)                   0 d,  0 h,  0 min,  0.093 sec
 SCC setup                      ...        0 min,  0.000 sec (  0.520%)
 Dispersion                     ...        0 min,  0.001 sec (  1.345%)
 classical contributions        ...        0 min,  0.000 sec (  0.109%)
 integral evaluation            ...        0 min,  0.018 sec ( 19.429%)
 iterations                     ...        0 min,  0.056 sec ( 59.830%)
 molecular gradient             ...        0 min,  0.017 sec ( 18.391%)
 printout                       ...        0 min,  0.000 sec (  0.282%)

         :::::::::::::::::::::::::::::::::::::::::::::::::::::
         ::                     SUMMARY                     ::
         :::::::::::::::::::::::::::::::::::::::::::::::::::::
         :: total energy             -69.854200134567 Eh    ::
         :: gradient norm              0.227146277985 Eh/a0 ::
         :: HOMO-LUMO gap              1.992974836473 eV    ::
         ::.................................................::
         :: SCC energy               -70.743660622238 Eh    ::
         :: -> isotropic ES            0.088213233762 Eh    ::
         :: -> anisotropic ES          0.011371773896 Eh    ::
         :: -> anisotropic XC          0.058399881831 Eh    ::
         :: -> dispersion             -0.045673488988 Eh    ::
         :: repulsion energy           0.889612981572 Eh    ::
         :: add. restraining           0.000000000000 Eh    ::
         :: total charge              -0.000000000000 e     ::
         :::::::::::::::::::::::::::::::::::::::::::::::::::::

           -------------------------------------------------
          |                Property Printout                |
           -------------------------------------------------

    * Orbital Energies and Occupations

         #    Occupation            Energy/Eh            Energy/eV
      -------------------------------------------------------------
         1        2.0000           -0.7137546             -19.4223
       ...           ...                  ...                  ...
        51        2.0000           -0.4408740             -11.9968
        52        2.0000           -0.4389873             -11.9455
        53        2.0000           -0.4286993             -11.6655
        54        2.0000           -0.4200040             -11.4289
        55        2.0000           -0.4187859             -11.3957
        56        2.0000           -0.4124894             -11.2244
        57        2.0000           -0.4101791             -11.1615
        58        2.0000           -0.4089342             -11.1277
        59        2.0000           -0.4036429             -10.9837
        60        2.0000           -0.3751822             -10.2092
        61        2.0000           -0.3707448             -10.0885
        62        2.0000           -0.3635471              -9.8926
        63        2.0000           -0.3540913              -9.6353 (HOMO)
        64                         -0.2808508              -7.6423 (LUMO)
        65                         -0.2674644              -7.2781
        66                         -0.2487986              -6.7702
        67                         -0.2366719              -6.4402
        68                         -0.2319485              -6.3116
        69                         -0.2103243              -5.7232
        70                         -0.1731211              -4.7109
        71                         -0.1233831              -3.3574
        72                         -0.0841682              -2.2903
        73                         -0.0658184              -1.7910
        74                         -0.0545719              -1.4850
       ...                                ...                  ...
       116                          0.7084624              19.2782
      -------------------------------------------------------------
                  HL-Gap            0.0732405 Eh            1.9930 eV
             Fermi-level           -0.3174710 Eh           -8.6388 eV

     #   Z          covCN         q      C6AA      α(0)
     1   6 C        3.743    -0.105    22.589     6.780
     2   6 C        3.731     0.015    20.411     6.449
     3   7 N        2.732    -0.087    22.929     7.112
     4   6 C        2.762     0.259    22.643     7.793
     5   8 O        0.858    -0.417    22.030     6.293
     6   6 C        3.728     0.001    20.668     6.490
     7   7 N        2.690    -0.195    25.227     7.460
     8   6 C        2.859     0.132    25.117     8.215
     9   7 N        1.845    -0.254    27.475     7.768
    10   6 C        2.864     0.036    27.186     8.547
    11   6 C        2.920     0.075    26.325     8.414
    12   6 C        2.981    -0.007    28.188     8.709
    13   6 C        2.936    -0.015    28.379     8.737
    14   6 C        2.926    -0.037    28.916     8.819
    15   6 C        2.906     0.102    25.749     8.320
    16   6 C        3.017     0.151    24.698     8.152
    17   7 N        1.971    -0.274    27.927     7.837
    18   6 C        2.984     0.084    26.119     8.383
    19   7 N        2.894     0.019    20.914     6.792
    20   7 N        2.076    -0.219    26.486     7.635
    21   7 N        1.864    -0.237    27.042     7.708
    22   6 C        2.917     0.100    25.781     8.326
    23   6 C        3.741    -0.117    22.823     6.816
    24   7 N        1.860    -0.258    27.553     7.780
    25   6 C        2.849     0.126    25.239     8.234
    26   1 H        0.921     0.053     2.289     2.366
    27   1 H        0.922     0.052     2.297     2.370
    28   1 H        0.922     0.051     2.305     2.374
    29   1 H        0.921     0.059     2.216     2.328
    30   1 H        0.919     0.059     2.217     2.329
    31   1 H        0.919     0.083     1.951     2.185
    32   1 H        0.919     0.064     2.149     2.293
    33   1 H        0.857     0.166     1.295     1.783
    34   1 H        0.923     0.056     2.248     2.345
    35   1 H        0.924     0.052     2.294     2.368
    36   1 H        0.925     0.040     2.442     2.444
    37   1 H        0.925     0.047     2.361     2.403
    38   1 H        0.855     0.169     1.278     1.771
    39   1 H        0.911     0.055     2.258     2.351
    40   1 H        0.925     0.056     2.252     2.347
    41   1 H        0.923     0.061     2.192     2.316

 Mol. C6AA /au·bohr⁶  :      21963.283215
 Mol. C8AA /au·bohr⁸  :     520166.083945
 Mol. α(0) /au        :        229.939662


Wiberg/Mayer (AO) data.
largest (>0.10) Wiberg bond orders for each atom

 ---------------------------------------------------------------------------
     #   Z sym  total        # sym  WBO       # sym  WBO       # sym  WBO
 ---------------------------------------------------------------------------
     1   6 C    3.991 --     2 C    1.006    28 H    0.988    26 H    0.987
                            27 H    0.984
     2   6 C    3.958 --     1 C    1.006     3 N    0.976    29 H    0.969
                            30 H    0.967
     3   7 N    3.537 --     4 C    1.163    25 C    1.065     2 C    0.976
                             5 O    0.158
     4   6 C    3.953 --     5 O    1.702     3 N    1.163     6 C    0.999
     5   8 O    1.991 --     4 C    1.702     3 N    0.158
     6   6 C    3.977 --     7 N    1.013     4 C    0.999    31 H    0.954
                            32 H    0.931
     7   7 N    3.327 --     8 C    1.136     6 C    1.013    33 H    0.943
     8   6 C    3.964 --     9 N    1.400    25 C    1.241     7 N    1.136
     9   7 N    3.044 --     8 C    1.400    10 C    1.366
    10   6 C    3.964 --    11 C    1.432     9 N    1.366    34 H    0.952
    11   6 C    3.973 --    10 C    1.432    24 N    1.288    12 C    1.061
    12   6 C    3.985 --    22 C    1.401    13 C    1.320    11 C    1.061
    13   6 C    3.983 --    14 C    1.512    12 C    1.320    35 H    0.964
                            21 N    0.104
    14   6 C    3.990 --    13 C    1.512    15 C    1.337    36 H    0.966
    15   6 C    3.972 --    21 N    1.424    14 C    1.337    16 C    1.037
    16   6 C    3.967 --    20 N    1.443    17 N    1.334    15 C    1.037
    17   7 N    3.024 --    18 C    1.493    16 C    1.334
    18   6 C    3.959 --    17 N    1.493    19 N    1.307    37 H    0.964
                            20 N    0.160
    19   7 N    3.652 --    18 C    1.307    20 N    1.236    38 H    0.933
    20   7 N    2.961 --    16 C    1.443    19 N    1.236    18 C    0.160
    21   7 N    3.056 --    15 C    1.424    22 C    1.373    13 C    0.104
    22   6 C    3.973 --    12 C    1.401    21 N    1.373    23 C    1.017
    23   6 C    3.989 --    22 C    1.017    40 H    0.975    39 H    0.974
                            41 H    0.963
    24   7 N    3.049 --    25 C    1.447    11 C    1.288
    25   6 C    3.967 --    24 N    1.447     8 C    1.241     3 N    1.065
    26   1 H    0.997 --     1 C    0.987
    27   1 H    0.997 --     1 C    0.984
    28   1 H    0.997 --     1 C    0.988
    29   1 H    0.996 --     2 C    0.969
    30   1 H    0.997 --     2 C    0.967
    31   1 H    0.992 --     6 C    0.954
    32   1 H    0.991 --     6 C    0.931
    33   1 H    0.972 --     7 N    0.943
    34   1 H    0.995 --    10 C    0.952
    35   1 H    0.996 --    13 C    0.964
    36   1 H    0.997 --    14 C    0.966
    37   1 H    0.997 --    18 C    0.964
    38   1 H    0.971 --    19 N    0.933
    39   1 H    0.996 --    23 C    0.974
    40   1 H    0.996 --    23 C    0.975
    41   1 H    0.996 --    23 C    0.963
 ---------------------------------------------------------------------------

Topologies differ in bond orders
Writing corrected topology to xtbtopo.sdf

molecular dipole:
                 x           y           z       tot (Debye)
 q only:        0.794       0.305      -0.043
   full:        0.938       0.193       0.086       2.443
molecular quadrupole (traceless):
                xx          xy          yy          xz          yz          zz
 q only:       11.039     -16.297      -2.913     -15.028       1.838      -8.126
  q+dip:       24.229     -24.767      -8.772     -19.303       1.532     -15.457
   full:       20.827     -24.214     -10.007     -18.385       1.595     -10.820


           -------------------------------------------------
          | TOTAL ENERGY              -69.854200134567 Eh   |
          | GRADIENT NORM               0.227146277985 Eh/α |
          | HOMO-LUMO GAP               1.992974836473 eV   |
           -------------------------------------------------

------------------------------------------------------------------------
 * finished run on 2020/12/23 at 17:40:44.412
------------------------------------------------------------------------
 total:
 * wall-time:     0 d,  0 h,  0 min,  0.160 sec
 *  cpu-time:     0 d,  0 h,  0 min,  0.581 sec
 * ratio c/w:     3.625 speedup
 SCF:
 * wall-time:     0 d,  0 h,  0 min,  0.093 sec
 *  cpu-time:     0 d,  0 h,  0 min,  0.372 sec
 * ratio c/w:     3.985 speedup
