 Entering Gaussian System, Link 0=/opt/gaussian/g16/avx2/g16/g16
 Initial command:
 /opt/gaussian/g16/avx2/g16/l1.exe "/home/koerstz/Desktop/nbo_test/Gau-27024.inp" -scrdir="/home/koerstz/Desktop/nbo_test/"
 Entering Link 1 = /opt/gaussian/g16/avx2/g16/l1.exe PID=     27026.

 Copyright (c) 1988,1990,1992,1993,1995,1998,2003,2009,2016,
            Gaussian, Inc.  All Rights Reserved.

 This is part of the Gaussian(R) 16 program.  It is based on
 the Gaussian(R) 09 system (copyright 2009, Gaussian, Inc.),
 the Gaussian(R) 03 system (copyright 2003, Gaussian, Inc.),
 the Gaussian(R) 98 system (copyright 1998, Gaussian, Inc.),
 the Gaussian(R) 94 system (copyright 1995, Gaussian, Inc.),
 the Gaussian 92(TM) system (copyright 1992, Gaussian, Inc.),
 the Gaussian 90(TM) system (copyright 1990, Gaussian, Inc.),
 the Gaussian 88(TM) system (copyright 1988, Gaussian, Inc.),
 the Gaussian 86(TM) system (copyright 1986, Carnegie Mellon
 University), and the Gaussian 82(TM) system (copyright 1983,
 Carnegie Mellon University). Gaussian is a federally registered
 trademark of Gaussian, Inc.

 This software contains proprietary and confidential information,
 including trade secrets, belonging to Gaussian, Inc.

 This software is provided under written license and may be
 used, copied, transmitted, or stored only in accord with that
 written license.

 The following legend is applicable only to US Government
 contracts under FAR:

                    RESTRICTED RIGHTS LEGEND

 Use, reproduction and disclosure by the US Government is
 subject to restrictions as set forth in subparagraphs (a)
 and (c) of the Commercial Computer Software - Restricted
 Rights clause in FAR 52.227-19.

 Gaussian, Inc.
 340 Quinnipiac St., Bldg. 40, Wallingford CT 06492


 ---------------------------------------------------------------
 Warning -- This program may not be used in any manner that
 competes with the business of Gaussian, Inc. or will provide
 assistance to any competitor of Gaussian, Inc.  The licensee
 of this program is prohibited from giving any competitor of
 Gaussian, Inc. access to this program.  By using this program,
 the user acknowledges that Gaussian, Inc. is engaged in the
 business of creating and licensing software in the field of
 computational chemistry and represents and warrants to the
 licensee that it is not a competitor of Gaussian, Inc. and that
 it will not use this program in any manner prohibited above.
 ---------------------------------------------------------------


 Cite this work as:
 Gaussian 16, Revision A.03,
 M. J. Frisch, G. W. Trucks, H. B. Schlegel, G. E. Scuseria,
 M. A. Robb, J. R. Cheeseman, G. Scalmani, V. Barone,
 G. A. Petersson, H. Nakatsuji, X. Li, M. Caricato, A. V. Marenich,
 J. Bloino, B. G. Janesko, R. Gomperts, B. Mennucci, H. P. Hratchian,
 J. V. Ortiz, A. F. Izmaylov, J. L. Sonnenberg, D. Williams-Young,
 F. Ding, F. Lipparini, F. Egidi, J. Goings, B. Peng, A. Petrone,
 T. Henderson, D. Ranasinghe, V. G. Zakrzewski, J. Gao, N. Rega,
 G. Zheng, W. Liang, M. Hada, M. Ehara, K. Toyota, R. Fukuda,
 J. Hasegawa, M. Ishida, T. Nakajima, Y. Honda, O. Kitao, H. Nakai,
 T. Vreven, K. Throssell, J. A. Montgomery, Jr., J. E. Peralta,
 F. Ogliaro, M. J. Bearpark, J. J. Heyd, E. N. Brothers, K. N. Kudin,
 V. N. Staroverov, T. A. Keith, R. Kobayashi, J. Normand,
 K. Raghavachari, A. P. Rendell, J. C. Burant, S. S. Iyengar,
 J. Tomasi, M. Cossi, J. M. Millam, M. Klene, C. Adamo, R. Cammi,
 J. W. Ochterski, R. L. Martin, K. Morokuma, O. Farkas,
 J. B. Foresman, and D. J. Fox, Gaussian, Inc., Wallingford CT, 2016.

 ******************************************
 Gaussian 16:  ES64L-G16RevA.03 25-Dec-2016
                17-Aug-2021
 ******************************************
 ---------------------------------------
 # b3lyp/def2svp pop=(hirshfeld,nboread)
 ---------------------------------------
 1/38=1,172=1/1;
 2/12=2,17=6,18=5,40=1/2;
 3/5=43,7=101,11=2,25=1,30=1,74=-5/1,2,3;
 4//1;
 5/5=2,38=5/2;
 6/7=2,8=2,9=2,10=2,28=1,40=2,79=1/1,7;
 99/5=1,9=1/99;
 -------------------
 Title Card Required
 -------------------
 Symbolic Z-matrix:
 Charge =  0 Multiplicity = 1
 N                    -0.36201   0.53369   1.20025
 H                     0.63798   0.52989   1.20228
 H                    -0.69176   1.47775   1.19823
 C                    -0.8522   -0.15914   0.
 H                    -0.49937  -1.16929   0.00217
 H                    -0.49186   0.34265  -0.87365
 C                    -2.39219  -0.1533   -0.00312
 H                    -2.75233  -0.57941   0.90991
 H                    -2.74487   0.85312  -0.09053
 C                    -2.90626  -0.98268  -1.19454
 H                    -2.56903  -1.99349  -1.09741
 H                    -3.976    -0.96326  -1.20751
 H                    -2.53091  -0.56753  -2.1065

                          Input orientation:
 ---------------------------------------------------------------------
 Center     Atomic      Atomic             Coordinates (Angstroms)
 Number     Number       Type             X           Y           Z
 ---------------------------------------------------------------------
      1          7           0       -0.362007    0.533686    1.200250
      2          1           0        0.637984    0.529894    1.202278
      3          1           0       -0.691759    1.477751    1.198226
      4          6           0       -0.852204   -0.159141    0.000001
      5          1           0       -0.499368   -1.169290    0.002167
      6          1           0       -0.491859    0.342650   -0.873646
      7          6           0       -2.392189   -0.153300   -0.003123
      8          1           0       -2.752327   -0.579408    0.909912
      9          1           0       -2.744866    0.853119   -0.090527
     10          6           0       -2.906256   -0.982676   -1.194539
     11          1           0       -2.569027   -1.993489   -1.097411
     12          1           0       -3.976001   -0.963260   -1.207506
     13          1           0       -2.530915   -0.567533   -2.106501
 ---------------------------------------------------------------------
                    Distance matrix (angstroms):
                    1          2          3          4          5
     1  N    0.000000
     2  H    1.000000   0.000000
     3  H    1.000000   1.632993   0.000000
     4  C    1.470000   2.034920   2.034920   0.000000
     5  H    2.086720   2.370879   2.911082   1.070000   0.000000
     6  H    2.086720   2.370879   2.370879   1.070000   1.747303
     7  C    2.457987   3.331921   2.644812   1.540000   2.148263
     8  H    2.652716   3.579139   2.925913   2.148263   2.499557
     9  H    2.728765   3.635862   2.503257   2.148263   3.023407
    10  C    3.808880   4.538087   4.084485   2.514809   2.694446
    11  H    4.066546   4.684117   4.565478   2.741647   2.484324
    12  H    4.593375   5.415296   4.746823   3.444240   3.686832
    13  H    4.105052   4.711081   4.299640   2.724372   2.989276
                    6          7          8          9         10
     6  H    0.000000
     7  C    2.148263   0.000000
     8  H    3.023406   1.070000   0.000000
     9  H    2.439241   1.070000   1.747303   0.000000
    10  C    2.772864   1.540000   2.148263   2.148263   0.000000
    11  H    3.134046   2.148263   2.462229   3.024552   1.070000
    12  H    3.735788   2.148263   2.475517   2.462229   1.070000
    13  H    2.550708   2.148263   3.024552   2.475516   1.070000
                   11         12         13
    11  H    0.000000
    12  H    1.747303   0.000000
    13  H    1.747303   1.747303   0.000000
 Stoichiometry    C3H9N
 Framework group  C1[X(C3H9N)]
 Deg. of freedom    33
 Full point group                 C1      NOp   1
 Largest Abelian subgroup         C1      NOp   1
 Largest concise Abelian subgroup C1      NOp   1
                         Standard orientation:
 ---------------------------------------------------------------------
 Center     Atomic      Atomic             Coordinates (Angstroms)
 Number     Number       Type             X           Y           Z
 ---------------------------------------------------------------------
      1          7           0       -1.884642    0.161089   -0.112632
      2          1           0       -2.613159   -0.521927   -0.060165
      3          1           0       -2.006545    0.835113    0.615950
      4          6           0       -0.581048   -0.499879    0.044414
      5          1           0       -0.450611   -1.221085   -0.735168
      6          1           0       -0.542123   -0.990613    0.994449
      7          6           0        0.540869    0.551964   -0.036385
      8          1           0        0.450357    1.100470   -0.950633
      9          1           0        0.460018    1.224050    0.792267
     10          6           0        1.909417   -0.152930    0.006010
     11          1           0        1.997712   -0.811182   -0.832923
     12          1           0        2.688954    0.579069   -0.031391
     13          1           0        1.992461   -0.716443    0.911801
 ---------------------------------------------------------------------
 Rotational constants (GHZ):          24.9982142           3.7896614           3.5293955
 Standard basis: def2SVP (5D, 7F)
 There are   105 symmetry adapted cartesian basis functions of A   symmetry.
 There are   101 symmetry adapted basis functions of A   symmetry.
   101 basis functions,   163 primitive gaussians,   105 cartesian basis functions
    17 alpha electrons       17 beta electrons
       nuclear repulsion energy       132.1242937285 Hartrees.
 NAtoms=   13 NActive=   13 NUniq=   13 SFac= 1.00D+00 NAtFMM=   60 NAOKFM=F Big=F
 Integral buffers will be    131072 words long.
 Raffenetti 2 integral format.
 Two-electron integral symmetry is turned on.
 One-electron integrals computed using PRISM.
   1 Symmetry operations used in ECPInt.
 ECPInt:  NShTT=    1326 NPrTT=    4450 LenC2=    1326 LenP2D=    3946.
 LDataN:  DoStor=T MaxTD1= 4 Len=   56
 NBasis=   101 RedAO= T EigKep=  2.04D-03  NBF=   101
 NBsUse=   101 1.00D-06 EigRej= -1.00D+00 NBFU=   101
 ExpMin= 1.22D-01 ExpMax= 1.71D+03 ExpMxC= 2.58D+02 IAcc=3 IRadAn=         5 AccDes= 0.00D+00
 Harris functional with IExCor=  402 and IRadAn=       5 diagonalized for initial guess.
 HarFok:  IExCor=  402 AccDes= 0.00D+00 IRadAn=         5 IDoV= 1 UseB2=F ITyADJ=14
 ICtDFT=  3500011 ScaDFX=  1.000000  1.000000  1.000000  1.000000
 FoFCou: FMM=F IPFlag=           0 FMFlag=      100000 FMFlg1=           0
         NFxFlg=           0 DoJE=T BraDBF=F KetDBF=T FulRan=T
         wScrn=  0.000000 ICntrl=       500 IOpCl=  0 I1Cent=   200000004 NGrid=           0
         NMat0=    1 NMatS0=      1 NMatT0=    0 NMatD0=    1 NMtDS0=    0 NMtDT0=    0
 Petite list used in FoFCou.
 Keep R1 ints in memory in canonical form, NReq=14199894.
 Requested convergence on RMS density matrix=1.00D-08 within 128 cycles.
 Requested convergence on MAX density matrix=1.00D-06.
 Requested convergence on             energy=1.00D-06.
 No special actions if energy rises.
 Integral accuracy reduced to 1.0D-05 until final iterations.
 Initial convergence to 1.0D-05 achieved.  Increase integral accuracy.
 SCF Done:  E(RB3LYP) =  -174.350894358     A.U. after   12 cycles
            NFock= 12  Conv=0.15D-08     -V/T= 2.0103

 **********************************************************************

            Population analysis using the SCF density.

 **********************************************************************

 Orbital symmetries:
       Occupied  (A) (A) (A) (A) (A) (A) (A) (A) (A) (A) (A) (A)
                 (A) (A) (A) (A) (A)
       Virtual   (A) (A) (A) (A) (A) (A) (A) (A) (A) (A) (A) (A)
                 (A) (A) (A) (A) (A) (A) (A) (A) (A) (A) (A) (A)
                 (A) (A) (A) (A) (A) (A) (A) (A) (A) (A) (A) (A)
                 (A) (A) (A) (A) (A) (A) (A) (A) (A) (A) (A) (A)
                 (A) (A) (A) (A) (A) (A) (A) (A) (A) (A) (A) (A)
                 (A) (A) (A) (A) (A) (A) (A) (A) (A) (A) (A) (A)
                 (A) (A) (A) (A) (A) (A) (A) (A) (A) (A) (A) (A)
 The electronic state is 1-A.
 Alpha  occ. eigenvalues --  -14.29020 -10.19382 -10.17025 -10.16687  -0.86502
 Alpha  occ. eigenvalues --   -0.75918  -0.65095  -0.58315  -0.48694  -0.46342
 Alpha  occ. eigenvalues --   -0.43961  -0.40981  -0.38537  -0.34693  -0.34102
 Alpha  occ. eigenvalues --   -0.33102  -0.22435
 Alpha virt. eigenvalues --    0.05782   0.07315   0.09927   0.11560   0.13703
 Alpha virt. eigenvalues --    0.15073   0.16303   0.16855   0.17737   0.21954
 Alpha virt. eigenvalues --    0.23601   0.25396   0.43229   0.43636   0.45510
 Alpha virt. eigenvalues --    0.46314   0.48464   0.54233   0.60590   0.61658
 Alpha virt. eigenvalues --    0.63585   0.66244   0.66588   0.68265   0.69358
 Alpha virt. eigenvalues --    0.70760   0.71071   0.71288   0.72840   0.75684
 Alpha virt. eigenvalues --    0.76655   0.83681   0.91024   0.92363   1.00261
 Alpha virt. eigenvalues --    1.02603   1.12183   1.18399   1.24188   1.29859
 Alpha virt. eigenvalues --    1.36319   1.37461   1.49313   1.54986   1.56187
 Alpha virt. eigenvalues --    1.68974   1.72507   1.75494   1.77104   1.78188
 Alpha virt. eigenvalues --    1.79013   1.81054   1.84758   1.87638   1.88949
 Alpha virt. eigenvalues --    1.90372   1.91911   1.94220   1.96646   1.98714
 Alpha virt. eigenvalues --    2.10808   2.11236   2.16833   2.25333   2.30625
 Alpha virt. eigenvalues --    2.33464   2.43264   2.43808   2.46394   2.54975
 Alpha virt. eigenvalues --    2.61428   2.65706   2.71794   2.80030   2.82485
 Alpha virt. eigenvalues --    2.89725   2.93047   2.94225   2.97332   3.06307
 Alpha virt. eigenvalues --    3.08132   3.13066   3.25351   3.41559
          Condensed to atoms (all electrons):
               1          2          3          4          5          6
     1  N    6.251021   0.342103   0.356730   0.370602  -0.027091  -0.028593
     2  H    0.342103   0.633192  -0.030137  -0.018003  -0.007300  -0.006153
     3  H    0.356730  -0.030137   0.628630  -0.032416   0.010577  -0.009197
     4  C    0.370602  -0.018003  -0.032416   4.507118   0.365856   0.363634
     5  H   -0.027091  -0.007300   0.010577   0.365856   0.730281  -0.043816
     6  H   -0.028593  -0.006153  -0.009197   0.363634  -0.043816   0.788462
     7  C   -0.059847   0.009346  -0.008980   0.433218  -0.010712  -0.038543
     8  H    0.014343  -0.000292  -0.002903  -0.022460  -0.014775   0.013490
     9  H   -0.005022  -0.000217   0.007867  -0.020132   0.010325  -0.016657
    10  C    0.006673  -0.000850   0.000125  -0.044329  -0.005452   0.001301
    11  H   -0.000012   0.000009   0.000079  -0.008502   0.008784  -0.002455
    12  H   -0.000272   0.000027   0.000005   0.006911   0.000023  -0.000369
    13  H    0.000135   0.000006  -0.000074  -0.006960  -0.002739   0.009162
               7          8          9         10         11         12
     1  N   -0.059847   0.014343  -0.005022   0.006673  -0.000012  -0.000272
     2  H    0.009346  -0.000292  -0.000217  -0.000850   0.000009   0.000027
     3  H   -0.008980  -0.002903   0.007867   0.000125   0.000079   0.000005
     4  C    0.433218  -0.022460  -0.020132  -0.044329  -0.008502   0.006911
     5  H   -0.010712  -0.014775   0.010325  -0.005452   0.008784   0.000023
     6  H   -0.038543   0.013490  -0.016657   0.001301  -0.002455  -0.000369
     7  C    4.632133   0.349815   0.367526   0.395605  -0.020357  -0.006167
     8  H    0.349815   0.716924  -0.036275  -0.010313  -0.010691  -0.007131
     9  H    0.367526  -0.036275   0.733304  -0.019638   0.009365  -0.007023
    10  C    0.395605  -0.010313  -0.019638   4.493305   0.390172   0.369773
    11  H   -0.020357  -0.010691   0.009365   0.390172   0.681222  -0.022758
    12  H   -0.006167  -0.007131  -0.007023   0.369773  -0.022758   0.689576
    13  H   -0.023473   0.009619  -0.010044   0.387848  -0.025415  -0.023454
              13
     1  N    0.000135
     2  H    0.000006
     3  H   -0.000074
     4  C   -0.006960
     5  H   -0.002739
     6  H    0.009162
     7  C   -0.023473
     8  H    0.009619
     9  H   -0.010044
    10  C    0.387848
    11  H   -0.025415
    12  H   -0.023454
    13  H    0.688723
 Mulliken charges:
               1
     1  N   -0.220771
     2  H    0.078269
     3  H    0.079695
     4  C    0.105464
     5  H   -0.013961
     6  H   -0.030265
     7  C   -0.019564
     8  H    0.000649
     9  H   -0.013379
    10  C    0.035780
    11  H    0.000559
    12  H    0.000858
    13  H   -0.003332
 Sum of Mulliken charges =  -0.00000
 Mulliken charges with hydrogens summed into heavy atoms:
               1
     1  N   -0.062807
     4  C    0.061238
     7  C   -0.032295
    10  C    0.033864
 Electronic spatial extent (au):  <R**2>=            395.3454
 Charge=             -0.0000 electrons
 Dipole moment (field-independent basis, Debye):
    X=             -0.1022    Y=             -0.5246    Z=              1.1262  Tot=              1.2466
 Quadrupole moment (field-independent basis, Debye-Ang):
   XX=            -26.5805   YY=            -26.8743   ZZ=            -27.4559
   XY=              1.6208   XZ=             -2.6864   YZ=              1.3512
 Traceless Quadrupole moment (field-independent basis, Debye-Ang):
   XX=              0.3897   YY=              0.0959   ZZ=             -0.4856
   XY=              1.6208   XZ=             -2.6864   YZ=              1.3512
 Octapole moment (field-independent basis, Debye-Ang**2):
  XXX=            -13.2932  YYY=              0.5034  ZZZ=              0.9124  XYY=             -2.9229
  XXY=             -2.5532  XXZ=              5.2341  XZZ=             -0.4091  YZZ=             -0.1188
  YYZ=              0.4593  XYZ=             -2.3652
 Hexadecapole moment (field-independent basis, Debye-Ang**3):
 XXXX=           -372.7514 YYYY=            -82.2501 ZZZZ=            -50.1074 XXXY=             12.5441
 XXXZ=            -11.6332 YYYX=              0.1637 YYYZ=              2.0309 ZZZX=             -2.5987
 ZZZY=              1.2044 XXYY=            -74.8559 XXZZ=            -75.8596 YYZZ=            -20.7820
 XXYZ=              4.9553 YYXZ=             -1.7702 ZZXY=             -0.3874
 N-N= 1.321242937285D+02 E-N=-6.678178572756D+02  KE= 1.725704164133D+02
 There are a total of      288852 grid points.
 ElSum from          density=       34.0000000319
 ElSum from atomic densities=       34.0000019682
 Hirshfeld populations at iteration   1 (CA, CB, DipXYZ):
               1          2          3          4          5
     1  N    3.612311   3.612311   0.037163  -0.108100   0.185900
     2  H    0.453072   0.453072  -0.130848  -0.124171   0.017052
     3  H    0.453604   0.453604  -0.031210   0.112451   0.134210
     4  C    3.002858   3.002858  -0.034363   0.024253  -0.009206
     5  H    0.485746   0.485746   0.013873  -0.091309  -0.100925
     6  H    0.493965   0.493965  -0.002049  -0.053043   0.112715
     7  C    3.022805   3.022805   0.014516  -0.018171   0.002782
     8  H    0.486429   0.486429   0.000334   0.067096  -0.119980
     9  H    0.488128   0.488128  -0.005761   0.082215   0.106583
    10  C    3.041949   3.041949  -0.015097   0.010827  -0.002685
    11  H    0.486064   0.486064   0.011457  -0.081561  -0.110062
    12  H    0.486091   0.486091   0.097119   0.098861  -0.005432
    13  H    0.486979   0.486979   0.011355  -0.068763   0.116071
       Tot  17.000000  17.000000  -0.033512  -0.149416   0.327023

 Dip from Atomic Chgs             -0.006683  -0.056990   0.116063
         Total Dipole             -0.040195  -0.206406   0.443085

 Hirshfeld charges, spin densities, dipoles, and CM5 charges using IRadAn=      5:
              Q-H        S-H        Dx         Dy         Dz        Q-CM5
     1  N   -0.224621   0.000000   0.037163  -0.108100   0.185900  -0.691612
     2  H    0.093856   0.000000  -0.130848  -0.124171   0.017052   0.286824
     3  H    0.092793   0.000000  -0.031210   0.112451   0.134210   0.286614
     4  C   -0.005716   0.000000  -0.034363   0.024253  -0.009206  -0.069851
     5  H    0.028509   0.000000   0.013873  -0.091309  -0.100925   0.095887
     6  H    0.012069   0.000000  -0.002049  -0.053043   0.112715   0.079288
     7  C   -0.045610   0.000000   0.014516  -0.018171   0.002782  -0.159932
     8  H    0.027143   0.000000   0.000334   0.067096  -0.119980   0.087466
     9  H    0.023743   0.000000  -0.005761   0.082215   0.106583   0.083525
    10  C   -0.083898   0.000000  -0.015097   0.010827  -0.002685  -0.242985
    11  H    0.027872   0.000000   0.011457  -0.081561  -0.110062   0.082455
    12  H    0.027819   0.000000   0.097119   0.098861  -0.005432   0.081670
    13  H    0.026042   0.000000   0.011355  -0.068763   0.116071   0.080652
       Tot  -0.000000   0.000000  -0.033512  -0.149416   0.327023  -0.000000
 Hirshfeld charges with hydrogens summed into heavy atoms:
              Q-H       Q-CM5
     1  N   -0.037973  -0.118175
     4  C    0.034862   0.105324
     7  C    0.005276   0.011058
    10  C   -0.002165   0.001792

 EQQ=  0.00000000000     EQD=  0.00000000000     EDD= 0.170880282787E-02
 EQQ+QD+DD= 0.170880282787E-02

 ******************************Gaussian NBO Version 3.1******************************
             N A T U R A L   A T O M I C   O R B I T A L   A N D
          N A T U R A L   B O N D   O R B I T A L   A N A L Y S I S
 ******************************Gaussian NBO Version 3.1******************************

       /RESON  / : Allow strongly delocalized NBO set
       /BNDIDX / : Print bond indices based on the NAO density matrix

 Analyzing the SCF density

 Job title: Title Card Required

 Storage needed:     31224 in NPA,     41290 in NBO ( 104856625 available)
 GSVD:  LWork=        5407 too small for GESVD, short by        3758 words or        3758 for optimal perf.


 NATURAL POPULATIONS:  Natural atomic orbital occupancies

   NAO  Atom  No  lang   Type(AO)    Occupancy      Energy
 ----------------------------------------------------------
     1    N    1  S      Cor( 1S)     1.99950     -14.14558
     2    N    1  S      Val( 2S)     1.40537      -0.50865
     3    N    1  S      Ryd( 3S)     0.00080       1.09480
     4    N    1  px     Val( 2p)     1.28131      -0.15982
     5    N    1  px     Ryd( 3p)     0.00237       0.93847
     6    N    1  py     Val( 2p)     1.43148      -0.16598
     7    N    1  py     Ryd( 3p)     0.00310       0.94252
     8    N    1  pz     Val( 2p)     1.73493      -0.19338
     9    N    1  pz     Ryd( 3p)     0.00484       0.88478
    10    N    1  dxy    Ryd( 3d)     0.00087       2.88540
    11    N    1  dxz    Ryd( 3d)     0.00059       2.48623
    12    N    1  dyz    Ryd( 3d)     0.00116       2.76667
    13    N    1  dx2y2  Ryd( 3d)     0.00020       2.58316
    14    N    1  dz2    Ryd( 3d)     0.00116       2.66156

    15    H    2  S      Val( 1S)     0.64747       0.11642
    16    H    2  S      Ryd( 2S)     0.00242       0.38932
    17    H    2  px     Ryd( 2p)     0.00086       2.16482
    18    H    2  py     Ryd( 2p)     0.00084       2.09876
    19    H    2  pz     Ryd( 2p)     0.00095       1.75996

    20    H    3  S      Val( 1S)     0.65187       0.11386
    21    H    3  S      Ryd( 2S)     0.00246       0.40258
    22    H    3  px     Ryd( 2p)     0.00053       1.80690
    23    H    3  py     Ryd( 2p)     0.00105       2.09201
    24    H    3  pz     Ryd( 2p)     0.00109       2.09776

    25    C    4  S      Cor( 1S)     1.99921     -10.07633
    26    C    4  S      Val( 2S)     0.99349      -0.18157
    27    C    4  S      Ryd( 3S)     0.00220       0.83726
    28    C    4  px     Val( 2p)     0.89286      -0.04867
    29    C    4  px     Ryd( 3p)     0.00236       0.57969
    30    C    4  py     Val( 2p)     1.08716      -0.05114
    31    C    4  py     Ryd( 3p)     0.00083       0.53233
    32    C    4  pz     Val( 2p)     1.19255      -0.04712
    33    C    4  pz     Ryd( 3p)     0.00220       0.69943
    34    C    4  dxy    Ryd( 3d)     0.00124       2.26881
    35    C    4  dxz    Ryd( 3d)     0.00089       2.06376
    36    C    4  dyz    Ryd( 3d)     0.00117       2.47217
    37    C    4  dx2y2  Ryd( 3d)     0.00104       2.14384
    38    C    4  dz2    Ryd( 3d)     0.00074       2.33367

    39    H    5  S      Val( 1S)     0.80583       0.09226
    40    H    5  S      Ryd( 2S)     0.00235       0.34825
    41    H    5  px     Ryd( 2p)     0.00010       1.81152
    42    H    5  py     Ryd( 2p)     0.00042       2.10545
    43    H    5  pz     Ryd( 2p)     0.00051       2.15251

    44    H    6  S      Val( 1S)     0.82952       0.08567
    45    H    6  S      Ryd( 2S)     0.00293       0.34926
    46    H    6  px     Ryd( 2p)     0.00015       1.82401
    47    H    6  py     Ryd( 2p)     0.00027       1.95370
    48    H    6  pz     Ryd( 2p)     0.00063       2.31099

    49    C    7  S      Cor( 1S)     1.99918     -10.04823
    50    C    7  S      Val( 2S)     1.01997      -0.19172
    51    C    7  S      Ryd( 3S)     0.00097       0.88907
    52    C    7  px     Val( 2p)     1.03602      -0.06029
    53    C    7  px     Ryd( 3p)     0.00252       0.60306
    54    C    7  py     Val( 2p)     1.12644      -0.05306
    55    C    7  py     Ryd( 3p)     0.00144       0.55553
    56    C    7  pz     Val( 2p)     1.21554      -0.04701
    57    C    7  pz     Ryd( 3p)     0.00227       0.71492
    58    C    7  dxy    Ryd( 3d)     0.00079       2.27636
    59    C    7  dxz    Ryd( 3d)     0.00034       2.06551
    60    C    7  dyz    Ryd( 3d)     0.00100       2.51430
    61    C    7  dx2y2  Ryd( 3d)     0.00050       2.12748
    62    C    7  dz2    Ryd( 3d)     0.00054       2.33538

    63    H    8  S      Val( 1S)     0.78657       0.10869
    64    H    8  S      Ryd( 2S)     0.00423       0.35580
    65    H    8  px     Ryd( 2p)     0.00014       1.82773
    66    H    8  py     Ryd( 2p)     0.00030       1.97975
    67    H    8  pz     Ryd( 2p)     0.00057       2.28423

    68    H    9  S      Val( 1S)     0.80168       0.09307
    69    H    9  S      Ryd( 2S)     0.00289       0.35625
    70    H    9  px     Ryd( 2p)     0.00017       1.83363
    71    H    9  py     Ryd( 2p)     0.00039       2.05880
    72    H    9  pz     Ryd( 2p)     0.00049       2.19906

    73    C   10  S      Cor( 1S)     1.99927     -10.04587
    74    C   10  S      Val( 2S)     1.07608      -0.20556
    75    C   10  S      Ryd( 3S)     0.00034       0.87164
    76    C   10  px     Val( 2p)     1.11646      -0.05740
    77    C   10  px     Ryd( 3p)     0.00195       0.56412
    78    C   10  py     Val( 2p)     1.18909      -0.05528
    79    C   10  py     Ryd( 3p)     0.00155       0.58987
    80    C   10  pz     Val( 2p)     1.21381      -0.05392
    81    C   10  pz     Ryd( 3p)     0.00094       0.58287
    82    C   10  dxy    Ryd( 3d)     0.00075       2.38593
    83    C   10  dxz    Ryd( 3d)     0.00021       2.09679
    84    C   10  dyz    Ryd( 3d)     0.00082       2.49013
    85    C   10  dx2y2  Ryd( 3d)     0.00035       2.16106
    86    C   10  dz2    Ryd( 3d)     0.00050       2.37372

    87    H   11  S      Val( 1S)     0.79748       0.08940
    88    H   11  S      Ryd( 2S)     0.00174       0.36081
    89    H   11  px     Ryd( 2p)     0.00016       1.77767
    90    H   11  py     Ryd( 2p)     0.00038       2.04489
    91    H   11  pz     Ryd( 2p)     0.00051       2.19015

    92    H   12  S      Val( 1S)     0.79037       0.09495
    93    H   12  S      Ryd( 2S)     0.00148       0.34741
    94    H   12  px     Ryd( 2p)     0.00043       2.13137
    95    H   12  py     Ryd( 2p)     0.00041       2.07212
    96    H   12  pz     Ryd( 2p)     0.00020       1.80850

    97    H   13  S      Val( 1S)     0.79888       0.08840
    98    H   13  S      Ryd( 2S)     0.00200       0.35886
    99    H   13  px     Ryd( 2p)     0.00017       1.77015
   100    H   13  py     Ryd( 2p)     0.00033       1.97798
   101    H   13  pz     Ryd( 2p)     0.00056       2.25539


 Summary of Natural Population Analysis:

                                       Natural Population
                Natural  -----------------------------------------------
    Atom  No    Charge         Core      Valence    Rydberg      Total
 -----------------------------------------------------------------------
      N    1   -0.86767      1.99950     5.85309    0.01508     7.86767
      H    2    0.34745      0.00000     0.64747    0.00507     0.65255
      H    3    0.34300      0.00000     0.65187    0.00513     0.65700
      C    4   -0.17795      1.99921     4.16606    0.01267     6.17795
      H    5    0.19080      0.00000     0.80583    0.00337     0.80920
      H    6    0.16651      0.00000     0.82952    0.00397     0.83349
      C    7   -0.40751      1.99918     4.39797    0.01035     6.40751
      H    8    0.20819      0.00000     0.78657    0.00523     0.79181
      H    9    0.19438      0.00000     0.80168    0.00395     0.80562
      C   10   -0.60210      1.99927     4.59543    0.00740     6.60210
      H   11    0.19973      0.00000     0.79748    0.00279     0.80027
      H   12    0.20711      0.00000     0.79037    0.00252     0.79289
      H   13    0.19806      0.00000     0.79888    0.00306     0.80194
 =======================================================================
   * Total *   -0.00000      7.99716    25.92223    0.08061    34.00000

                                 Natural Population
 --------------------------------------------------------
   Core                       7.99716 ( 99.9645% of   8)
   Valence                   25.92223 ( 99.7009% of  26)
   Natural Minimal Basis     33.91939 ( 99.7629% of  34)
   Natural Rydberg Basis      0.08061 (  0.2371% of  34)
 --------------------------------------------------------

    Atom  No          Natural Electron Configuration
 ----------------------------------------------------------------------------
      N    1      [core]2S( 1.41)2p( 4.45)3p( 0.01)
      H    2            1S( 0.65)
      H    3            1S( 0.65)
      C    4      [core]2S( 0.99)2p( 3.17)3p( 0.01)3d( 0.01)
      H    5            1S( 0.81)
      H    6            1S( 0.83)
      C    7      [core]2S( 1.02)2p( 3.38)3p( 0.01)
      H    8            1S( 0.79)
      H    9            1S( 0.80)
      C   10      [core]2S( 1.08)2p( 3.52)
      H   11            1S( 0.80)
      H   12            1S( 0.79)
      H   13            1S( 0.80)


 Wiberg bond index matrix in the NAO basis:

     Atom    1       2       3       4       5       6       7       8       9
     ---- ------  ------  ------  ------  ------  ------  ------  ------  ------
   1.  N  0.0000  0.8674  0.8682  0.9954  0.0061  0.0239  0.0141  0.0041  0.0013
   2.  H  0.8674  0.0000  0.0009  0.0023  0.0011  0.0005  0.0105  0.0001  0.0000
   3.  H  0.8682  0.0009  0.0000  0.0040  0.0122  0.0005  0.0013  0.0000  0.0005
   4.  C  0.9954  0.0023  0.0040  0.0000  0.9284  0.9331  1.0094  0.0037  0.0032
   5.  H  0.0061  0.0011  0.0122  0.9284  0.0000  0.0007  0.0040  0.0009  0.0128
   6.  H  0.0239  0.0005  0.0005  0.9331  0.0007  0.0000  0.0033  0.0134  0.0015
   7.  C  0.0141  0.0105  0.0013  1.0094  0.0040  0.0033  0.0000  0.9226  0.9292
   8.  H  0.0041  0.0001  0.0000  0.0037  0.0009  0.0134  0.9226  0.0000  0.0008
   9.  H  0.0013  0.0000  0.0005  0.0032  0.0128  0.0015  0.9292  0.0008  0.0000
  10.  C  0.0097  0.0012  0.0001  0.0094  0.0014  0.0006  1.0246  0.0033  0.0035
  11.  H  0.0002  0.0000  0.0000  0.0012  0.0003  0.0000  0.0034  0.0011  0.0125
  12.  H  0.0008  0.0004  0.0000  0.0094  0.0001  0.0000  0.0026  0.0012  0.0013
  13.  H  0.0004  0.0000  0.0000  0.0013  0.0001  0.0003  0.0037  0.0126  0.0010

     Atom   10      11      12      13
     ---- ------  ------  ------  ------
   1.  N  0.0097  0.0002  0.0008  0.0004
   2.  H  0.0012  0.0000  0.0004  0.0000
   3.  H  0.0001  0.0000  0.0000  0.0000
   4.  C  0.0094  0.0012  0.0094  0.0013
   5.  H  0.0014  0.0003  0.0001  0.0001
   6.  H  0.0006  0.0000  0.0000  0.0003
   7.  C  1.0246  0.0034  0.0026  0.0037
   8.  H  0.0033  0.0011  0.0012  0.0126
   9.  H  0.0035  0.0125  0.0013  0.0010
  10.  C  0.0000  0.9433  0.9425  0.9437
  11.  H  0.9433  0.0000  0.0009  0.0007
  12.  H  0.9425  0.0009  0.0000  0.0009
  13.  H  0.9437  0.0007  0.0009  0.0000


 Wiberg bond index, Totals by atom:

     Atom    1
     ---- ------
   1.  N  2.7915
   2.  H  0.8844
   3.  H  0.8876
   4.  C  3.9008
   5.  H  0.9679
   6.  H  0.9778
   7.  C  3.9286
   8.  H  0.9639
   9.  H  0.9675
  10.  C  3.8831
  11.  H  0.9636
  12.  H  0.9601
  13.  H  0.9647


 Atom-atom overlap-weighted NAO bond order:

     Atom    1       2       3       4       5       6       7       8       9
     ---- ------  ------  ------  ------  ------  ------  ------  ------  ------
   1.  N  0.0000  0.7014  0.7027  0.7960 -0.0100 -0.0208 -0.0196  0.0006 -0.0034
   2.  H  0.7014  0.0000 -0.0079 -0.0064 -0.0051 -0.0035  0.0097  0.0001 -0.0001
   3.  H  0.7027 -0.0079  0.0000 -0.0083  0.0078 -0.0036 -0.0059 -0.0007  0.0038
   4.  C  0.7960 -0.0064 -0.0083  0.0000  0.7661  0.7658  0.8154 -0.0039 -0.0039
   5.  H -0.0100 -0.0051  0.0078  0.7661  0.0000 -0.0064 -0.0018 -0.0059  0.0080
   6.  H -0.0208 -0.0035 -0.0036  0.7658 -0.0064  0.0000 -0.0074  0.0086 -0.0071
   7.  C -0.0196  0.0097 -0.0059  0.8154 -0.0018 -0.0074  0.0000  0.7608  0.7637
   8.  H  0.0006  0.0001 -0.0007 -0.0039 -0.0059  0.0086  0.7608  0.0000 -0.0025
   9.  H -0.0034 -0.0001  0.0038 -0.0039  0.0080 -0.0071  0.7637 -0.0025  0.0000
  10.  C  0.0053 -0.0005 -0.0000 -0.0100 -0.0082 -0.0049  0.8155 -0.0031 -0.0046
  11.  H  0.0001 -0.0000  0.0000 -0.0076  0.0027 -0.0006 -0.0028 -0.0058  0.0077
  12.  H -0.0001  0.0000 -0.0000  0.0080  0.0002 -0.0000 -0.0005 -0.0059 -0.0060
  13.  H  0.0000 -0.0000 -0.0000 -0.0073 -0.0011  0.0031 -0.0029  0.0078 -0.0054

     Atom   10      11      12      13
     ---- ------  ------  ------  ------
   1.  N  0.0053  0.0001 -0.0001  0.0000
   2.  H -0.0005 -0.0000  0.0000 -0.0000
   3.  H -0.0000  0.0000 -0.0000 -0.0000
   4.  C -0.0100 -0.0076  0.0080 -0.0073
   5.  H -0.0082  0.0027  0.0002 -0.0011
   6.  H -0.0049 -0.0006 -0.0000  0.0031
   7.  C  0.8155 -0.0028 -0.0005 -0.0029
   8.  H -0.0031 -0.0058 -0.0059  0.0078
   9.  H -0.0046  0.0077 -0.0060 -0.0054
  10.  C  0.0000  0.7638  0.7625  0.7636
  11.  H  0.7638  0.0000 -0.0015 -0.0012
  12.  H  0.7625 -0.0015  0.0000 -0.0018
  13.  H  0.7636 -0.0012 -0.0018  0.0000


 Atom-atom overlap-weighted NAO bond order, Totals by atom:

     Atom    1
     ---- ------
   1.  N  2.1522
   2.  H  0.6877
   3.  H  0.6879
   4.  C  3.1038
   5.  H  0.7462
   6.  H  0.7234
   7.  C  3.1242
   8.  H  0.7501
   9.  H  0.7502
  10.  C  3.0795
  11.  H  0.7547
  12.  H  0.7548
  13.  H  0.7548


 MO bond order:

     Atom    1       2       3       4       5       6       7       8       9
     ---- ------  ------  ------  ------  ------  ------  ------  ------  ------
   1.  N  0.0000 -0.6909  1.3803  0.2051  0.1114 -0.0678 -0.0768 -0.0686 -0.0276
   2.  H -0.6909  0.0000 -0.0390  0.0998 -0.0434 -0.0284 -0.0956  0.0091 -0.0031
   3.  H  1.3803 -0.0390  0.0000 -0.0645  0.1471 -0.0340  0.0344 -0.0063  0.0345
   4.  C  0.2051  0.0998 -0.0645  0.0000 -0.6142  0.8062 -0.8346 -0.0049 -0.0498
   5.  H  0.1114 -0.0434  0.1471 -0.6142  0.0000 -0.0351  0.0362 -0.0482  0.1561
   6.  H -0.0678 -0.0284 -0.0340  0.8062 -0.0351  0.0000 -0.0100  0.1631 -0.0547
   7.  C -0.0768 -0.0956  0.0344 -0.8346  0.0362 -0.0100  0.0000  0.1852  1.5505
   8.  H -0.0686  0.0091 -0.0063 -0.0049 -0.0482  0.1631  0.1852  0.0000 -0.0018
   9.  H -0.0276 -0.0031  0.0345 -0.0498  0.1561 -0.0547  1.5505 -0.0018  0.0000
  10.  C  0.0200  0.0122 -0.0020 -0.0433  0.0048 -0.0104  0.6470 -0.0018 -0.0393
  11.  H  0.0104 -0.0051  0.0066 -0.0471  0.0234 -0.0100  0.0632 -0.0485  0.1505
  12.  H -0.0317  0.0305 -0.0021  0.1484  0.0144  0.0036  0.0029 -0.0486 -0.0497
  13.  H  0.0116 -0.0040  0.0013 -0.0664 -0.0159  0.0267 -0.0004  0.1528 -0.0451

     Atom   10      11      12      13
     ---- ------  ------  ------  ------
   1.  N  0.0200  0.0104 -0.0317  0.0116
   2.  H  0.0122 -0.0051  0.0305 -0.0040
   3.  H -0.0020  0.0066 -0.0021  0.0013
   4.  C -0.0433 -0.0471  0.1484 -0.0664
   5.  H  0.0048  0.0234  0.0144 -0.0159
   6.  H -0.0104 -0.0100  0.0036  0.0267
   7.  C  0.6470  0.0632  0.0029 -0.0004
   8.  H -0.0018 -0.0485 -0.0486  0.1528
   9.  H -0.0393  0.1505 -0.0497 -0.0451
  10.  C  0.0000 -0.5878  1.6135  0.8502
  11.  H -0.5878  0.0000 -0.0071 -0.0176
  12.  H  1.6135 -0.0071  0.0000  0.0114
  13.  H  0.8502 -0.0176  0.0114  0.0000


 MO atomic valencies:

     Atom    1
     ---- ------
   1.  N  0.7754
   2.  H -0.7581
   3.  H  1.4563
   4.  C -0.4653
   5.  H -0.2634
   6.  H  0.7490
   7.  C  1.5021
   8.  H  0.2814
   9.  H  1.6204
  10.  C  2.4630
  11.  H -0.4691
  12.  H  1.6854
  13.  H  0.9045


 NATURAL BOND ORBITAL ANALYSIS:

                       Occupancies       Lewis Structure    Low   High
           Occ.    -------------------  -----------------   occ   occ
  Cycle   Thresh.   Lewis   Non-Lewis     CR  BD  3C  LP    (L)   (NL)   Dev
 =============================================================================
   1(1)    1.90    33.80446   0.19554      4  12   0   1     0      0    0.02
 -----------------------------------------------------------------------------

 Structure accepted: No low occupancy Lewis orbitals

 --------------------------------------------------------
   Core                      7.99715 ( 99.964% of   8)
   Valence Lewis            25.80731 ( 99.259% of  26)
  ==================       ============================
   Total Lewis              33.80446 ( 99.425% of  34)
  -----------------------------------------------------
   Valence non-Lewis         0.14314 (  0.421% of  34)
   Rydberg non-Lewis         0.05240 (  0.154% of  34)
  ==================       ============================
   Total non-Lewis           0.19554 (  0.575% of  34)
 --------------------------------------------------------


       (Occupancy)   Bond orbital/ Coefficients/ Hybrids
 ---------------------------------------------------------------------------------
     1. (1.99015) BD ( 1) N   1 - H   2
                ( 67.60%)   0.8222* N   1 s( 24.25%)p 3.12( 75.68%)d 0.00(  0.07%)
                                           -0.0001 -0.4923 -0.0090  0.6678 -0.0307
                                            0.5565 -0.0078 -0.0096 -0.0095 -0.0190
                                            0.0120  0.0080  0.0039  0.0106
                ( 32.40%)   0.5692* H   2 s( 99.83%)p 0.00(  0.17%)
                                           -0.9991  0.0025 -0.0313 -0.0271 -0.0043
     2. (1.99111) BD ( 1) N   1 - H   3
                ( 67.47%)   0.8214* N   1 s( 24.61%)p 3.06( 75.32%)d 0.00(  0.07%)
                                            0.0001  0.4960  0.0063 -0.1360  0.0175
                                            0.6123 -0.0310  0.5987 -0.0113 -0.0000
                                           -0.0047  0.0195 -0.0010  0.0169
                ( 32.53%)   0.5704* H   3 s( 99.83%)p 0.00(  0.17%)
                                            0.9991 -0.0033  0.0051 -0.0323 -0.0253
     3. (1.99202) BD ( 1) N   1 - C   4
                ( 60.25%)   0.7762* N   1 s( 32.92%)p 2.04( 67.02%)d 0.00(  0.06%)
                                            0.0002 -0.5738 -0.0007 -0.7290 -0.0004
                                            0.3665 -0.0060 -0.0659 -0.0051  0.0149
                                           -0.0138  0.0038 -0.0043  0.0103
                ( 39.75%)   0.6304* C   4 s( 22.70%)p 3.40( 77.16%)d 0.01(  0.14%)
                                           -0.0002 -0.4753 -0.0329  0.7861  0.0277
                                           -0.3807 -0.0019  0.0889  0.0090  0.0253
                                           -0.0043  0.0020 -0.0197  0.0177
     4. (1.98144) BD ( 1) C   4 - H   5
                ( 59.82%)   0.7735* C   4 s( 24.68%)p 3.05( 75.27%)d 0.00(  0.05%)
                                            0.0001 -0.4968  0.0056 -0.0860  0.0087
                                            0.5891  0.0014  0.6309 -0.0098  0.0016
                                            0.0034 -0.0192  0.0093 -0.0067
                ( 40.18%)   0.6339* H   5 s( 99.92%)p 0.00(  0.08%)
                                           -0.9996  0.0038  0.0038 -0.0195 -0.0207
     5. (1.98834) BD ( 1) C   4 - H   6
                ( 59.02%)   0.7682* C   4 s( 24.41%)p 3.09( 75.53%)d 0.00(  0.06%)
                                            0.0000 -0.4939  0.0126 -0.0150  0.0059
                                            0.4048  0.0088 -0.7688  0.0089  0.0000
                                           -0.0016  0.0162  0.0056 -0.0163
                ( 40.98%)   0.6402* H   6 s( 99.92%)p 0.00(  0.08%)
                                           -0.9996  0.0054  0.0012 -0.0139  0.0248
     6. (1.98148) BD ( 1) C   4 - C   7
                ( 49.86%)   0.7061* C   4 s( 28.25%)p 2.54( 71.71%)d 0.00(  0.04%)
                                            0.0003  0.5315 -0.0014  0.6099 -0.0112
                                            0.5855 -0.0083 -0.0450 -0.0003  0.0181
                                           -0.0018 -0.0001 -0.0003 -0.0096
                ( 50.14%)   0.7081* C   7 s( 26.78%)p 2.73( 73.18%)d 0.00(  0.04%)
                                            0.0004  0.5175  0.0050 -0.6282 -0.0074
                                           -0.5788  0.0082  0.0451 -0.0006  0.0178
                                           -0.0022 -0.0014  0.0007 -0.0100
     7. (1.98001) BD ( 1) C   7 - H   8
                ( 60.71%)   0.7791* C   7 s( 23.71%)p 3.21( 76.24%)d 0.00(  0.05%)
                                           -0.0001  0.4869 -0.0050 -0.0737 -0.0001
                                            0.4575  0.0100 -0.7399  0.0092 -0.0017
                                            0.0022 -0.0160 -0.0048  0.0128
                ( 39.29%)   0.6269* H   8 s( 99.92%)p 0.00(  0.08%)
                                            0.9996 -0.0046  0.0040 -0.0154  0.0238
     8. (1.98033) BD ( 1) C   7 - H   9
                ( 59.94%)   0.7742* C   7 s( 23.33%)p 3.28( 76.62%)d 0.00(  0.05%)
                                           -0.0001  0.4830 -0.0051 -0.0690  0.0041
                                            0.5587  0.0097  0.6701 -0.0104 -0.0020
                                           -0.0023  0.0185 -0.0071  0.0094
                ( 40.06%)   0.6329* H   9 s( 99.92%)p 0.00(  0.08%)
                                            0.9996 -0.0034  0.0016 -0.0189 -0.0207
     9. (1.98611) BD ( 1) C   7 - C  10
                ( 50.03%)   0.7073* C   7 s( 26.14%)p 2.82( 73.82%)d 0.00(  0.04%)
                                            0.0002  0.5112  0.0086  0.7710  0.0076
                                           -0.3778  0.0151  0.0260 -0.0009 -0.0150
                                            0.0015 -0.0006  0.0094 -0.0100
                ( 49.97%)   0.7069* C  10 s( 27.83%)p 2.59( 72.13%)d 0.00(  0.04%)
                                            0.0004  0.5275 -0.0003 -0.7524  0.0121
                                            0.3931  0.0101 -0.0224 -0.0012 -0.0135
                                            0.0006 -0.0004  0.0097 -0.0097
    10. (1.98992) BD ( 1) C  10 - H  11
                ( 60.13%)   0.7754* C  10 s( 24.11%)p 3.15( 75.84%)d 0.00(  0.05%)
                                            0.0000  0.4910 -0.0022  0.0826  0.0160
                                           -0.5396 -0.0024 -0.6783  0.0007 -0.0013
                                           -0.0025  0.0177 -0.0073  0.0088
                ( 39.87%)   0.6314* H  11 s( 99.92%)p 0.00(  0.08%)
                                            0.9996 -0.0015 -0.0037  0.0168  0.0217
    11. (1.98915) BD ( 1) C  10 - H  12
                ( 60.41%)   0.7772* C  10 s( 23.99%)p 3.17( 75.97%)d 0.00(  0.04%)
                                            0.0000  0.4898  0.0048  0.6481  0.0038
                                            0.5819 -0.0102 -0.0296  0.0005  0.0185
                                           -0.0009 -0.0008  0.0010 -0.0098
                ( 39.59%)   0.6292* H  12 s( 99.92%)p 0.00(  0.08%)
                                            0.9996 -0.0005 -0.0206 -0.0186  0.0011
    12. (1.99018) BD ( 1) C  10 - H  13
                ( 60.07%)   0.7751* C  10 s( 24.02%)p 3.16( 75.94%)d 0.00(  0.05%)
                                            0.0000  0.4901 -0.0021  0.0795  0.0157
                                           -0.4636 -0.0029  0.7334 -0.0004 -0.0009
                                            0.0024 -0.0165 -0.0054  0.0121
                ( 39.93%)   0.6319* H  13 s( 99.92%)p 0.00(  0.08%)
                                            0.9996 -0.0017 -0.0036  0.0144 -0.0234
    13. (1.99950) CR ( 1) N   1           s(100.00%)p 0.00(  0.00%)
                                            1.0000  0.0002 -0.0000  0.0002 -0.0000
                                           -0.0000  0.0000 -0.0002 -0.0000 -0.0000
                                            0.0000  0.0000  0.0000 -0.0000
    14. (1.99921) CR ( 1) C   4           s(100.00%)p 0.00(  0.00%)
                                            1.0000 -0.0002 -0.0000 -0.0000  0.0000
                                           -0.0003  0.0000 -0.0000  0.0000 -0.0000
                                           -0.0000  0.0000 -0.0000  0.0000
    15. (1.99918) CR ( 1) C   7           s(100.00%)p 0.00(  0.00%)
                                            1.0000 -0.0002 -0.0000  0.0000  0.0000
                                            0.0004 -0.0000 -0.0000  0.0000 -0.0000
                                            0.0000  0.0000 -0.0000  0.0000
    16. (1.99927) CR ( 1) C  10           s(100.00%)p 0.00(  0.00%)
                                            1.0000 -0.0003  0.0000  0.0003 -0.0000
                                           -0.0002 -0.0000  0.0000  0.0000  0.0000
                                           -0.0000  0.0000 -0.0000  0.0000
    17. (1.96708) LP ( 1) N   1           s( 18.14%)p 4.51( 81.81%)d 0.00(  0.05%)
                                           -0.0002  0.4257 -0.0120 -0.0503  0.0042
                                            0.4230  0.0185 -0.7967 -0.0386  0.0006
                                           -0.0008  0.0156  0.0041 -0.0157
    18. (0.00264) RY*( 1) N   1           s( 12.01%)p 6.72( 80.68%)d 0.61(  7.31%)
                                            0.0000  0.0155  0.3463 -0.0006 -0.3618
                                            0.0095 -0.5072 -0.0326  0.6461  0.1229
                                           -0.1550  0.1078  0.1375 -0.0585
    19. (0.00113) RY*( 2) N   1           s(  0.57%)p99.99( 78.20%)d37.52( 21.23%)
                                            0.0000  0.0029  0.0752 -0.0079 -0.4238
                                           -0.0227 -0.4499  0.0041 -0.6320  0.2492
                                            0.2507 -0.1965  0.2207 -0.0032
    20. (0.00013) RY*( 3) N   1           s(  7.75%)p11.55( 89.49%)d 0.36(  2.76%)
                                           -0.0000  0.0182  0.2778 -0.0191 -0.7011
                                            0.0112  0.6340  0.0219  0.0194 -0.0911
                                            0.0813 -0.0277 -0.1075 -0.0198
    21. (0.00005) RY*( 4) N   1           s( 62.53%)p 0.26( 16.08%)d 0.34( 21.39%)
    22. (0.00002) RY*( 5) N   1           s(  0.48%)p 5.28(  2.52%)d99.99( 97.01%)
    23. (0.00000) RY*( 6) N   1           s(  1.62%)p 6.17(  9.98%)d54.63( 88.40%)
    24. (0.00000) RY*( 7) N   1           s(  0.16%)p25.15(  4.10%)d99.99( 95.73%)
    25. (0.00000) RY*( 8) N   1           s( 14.77%)p 1.18( 17.46%)d 4.59( 67.77%)
    26. (0.00000) RY*( 9) N   1           s(  0.19%)p 8.68(  1.65%)d99.99( 98.15%)
    27. (0.00254) RY*( 1) H   2           s( 94.12%)p 0.06(  5.88%)
                                            0.0074  0.9701 -0.1469 -0.0430  0.1881
    28. (0.00091) RY*( 2) H   2           s(  3.16%)p30.68( 96.84%)
                                            0.0014  0.1777 -0.1105  0.2435 -0.9471
    29. (0.00048) RY*( 3) H   2           s(  0.97%)p99.99( 99.03%)
                                            0.0049  0.0986  0.5622 -0.7826 -0.2483
    30. (0.00002) RY*( 4) H   2           s(  1.92%)p51.02( 98.08%)
    31. (0.00259) RY*( 1) H   3           s( 93.86%)p 0.07(  6.14%)
                                            0.0085  0.9688 -0.1184 -0.0236  0.2163
    32. (0.00093) RY*( 2) H   3           s(  3.77%)p25.53( 96.23%)
                                            0.0019  0.1941  0.1129  0.6360 -0.7383
    33. (0.00050) RY*( 3) H   3           s(  0.46%)p99.99( 99.54%)
                                            0.0039  0.0676  0.9664  0.0802  0.2347
    34. (0.00002) RY*( 4) H   3           s(  2.08%)p47.07( 97.92%)
    35. (0.00308) RY*( 1) C   4           s( 28.28%)p 1.92( 54.36%)d 0.61( 17.36%)
                                           -0.0000  0.0104  0.5317  0.0062  0.6062
                                           -0.0096 -0.3145  0.0099  0.2774  0.0320
                                           -0.1229  0.1806  0.3361 -0.1092
    36. (0.00233) RY*( 2) C   4           s(  9.24%)p 8.11( 74.90%)d 1.72( 15.87%)
                                            0.0000 -0.0045  0.3039  0.0151  0.0280
                                           -0.0160 -0.0116 -0.0141 -0.8645  0.1176
                                           -0.1337 -0.2556  0.2483 -0.0006
    37. (0.00106) RY*( 3) C   4           s(  0.62%)p13.35(  8.25%)d99.99( 91.13%)
                                           -0.0000 -0.0011  0.0786  0.0112  0.0832
                                           -0.0024 -0.2734 -0.0148  0.0225 -0.2393
                                            0.8003 -0.4481  0.0416  0.1053
    38. (0.00066) RY*( 4) C   4           s(  4.40%)p 6.85( 30.10%)d14.90( 65.51%)
                                            0.0000 -0.0140  0.2092  0.0020 -0.5288
                                           -0.0171 -0.0233  0.0093  0.1430  0.5927
                                            0.3072  0.2077  0.3976 -0.0902
    39. (0.00038) RY*( 5) C   4           s( 21.52%)p 2.95( 63.38%)d 0.70( 15.10%)
                                           -0.0000  0.0043  0.4639  0.0250  0.0411
                                           -0.0085  0.7943  0.0130  0.0180 -0.2437
                                            0.2449  0.1531 -0.0691 -0.0580
    40. (0.00025) RY*( 6) C   4           s( 20.94%)p 2.17( 45.39%)d 1.61( 33.67%)
                                            0.0000 -0.0220  0.4571  0.0297 -0.5606
                                           -0.0114 -0.3706  0.0093  0.0329 -0.5030
                                           -0.1976  0.0873 -0.1798 -0.0686
    41. (0.00011) RY*( 7) C   4           s( 13.65%)p 0.11(  1.44%)d 6.22( 84.91%)
                                            0.0000  0.0029  0.3694 -0.0200  0.0704
                                            0.0051 -0.0601 -0.0050  0.0735  0.5119
                                           -0.0291 -0.2437 -0.7145  0.1276
    42. (0.00004) RY*( 8) C   4           s(  0.58%)p37.89( 21.97%)d99.99( 77.45%)
    43. (0.00000) RY*( 9) C   4           s(  0.74%)p 0.74(  0.55%)d99.99( 98.71%)
    44. (0.00238) RY*( 1) H   5           s( 99.21%)p 0.01(  0.79%)
                                            0.0055  0.9960 -0.0399 -0.0781 -0.0162
    45. (0.00019) RY*( 2) H   5           s(  0.18%)p99.99( 99.82%)
                                            0.0060  0.0417  0.2328  0.5762 -0.7823
    46. (0.00010) RY*( 3) H   5           s(  0.44%)p99.99( 99.56%)
                                           -0.0124  0.0648  0.8218  0.3080  0.4748
    47. (0.00003) RY*( 4) H   5           s(  0.26%)p99.99( 99.74%)
    48. (0.00297) RY*( 1) H   6           s( 99.33%)p 0.01(  0.67%)
                                            0.0073  0.9966  0.0308 -0.0657  0.0378
    49. (0.00018) RY*( 2) H   6           s(  0.03%)p99.99( 99.97%)
                                            0.0043  0.0163  0.3580  0.7420  0.5665
    50. (0.00015) RY*( 3) H   6           s(  0.04%)p99.99( 99.96%)
                                            0.0087  0.0170 -0.8926  0.0939  0.4405
    51. (0.00002) RY*( 4) H   6           s(  0.68%)p99.99( 99.32%)
    52. (0.00316) RY*( 1) C   7           s( 13.13%)p 6.26( 82.17%)d 0.36(  4.70%)
                                            0.0000 -0.0072  0.3622  0.0022 -0.8216
                                            0.0099  0.3786  0.0004 -0.0566 -0.0424
                                            0.0146  0.0351  0.2039 -0.0472
    53. (0.00252) RY*( 2) C   7           s(  0.16%)p99.99( 85.98%)d86.98( 13.86%)
                                           -0.0000  0.0010  0.0399 -0.0004  0.0373
                                           -0.0016 -0.1122 -0.0220 -0.9194 -0.0166
                                           -0.0421  0.3646 -0.0408 -0.0444
    54. (0.00093) RY*( 3) C   7           s( 22.36%)p 2.23( 49.81%)d 1.25( 27.84%)
                                            0.0000 -0.0121  0.4727 -0.0049  0.5131
                                            0.0122  0.4831 -0.0024 -0.0352  0.3556
                                           -0.0332 -0.0050  0.3699 -0.1181
    55. (0.00045) RY*( 4) C   7           s( 44.68%)p 1.01( 45.30%)d 0.22( 10.02%)
                                            0.0000  0.0132  0.6683 -0.0045  0.0248
                                            0.0083 -0.6705  0.0038  0.0517 -0.1437
                                            0.2108 -0.1185  0.1450 -0.0089
    56. (0.00031) RY*( 5) C   7           s(  1.32%)p 1.21(  1.60%)d73.37( 97.07%)
                                            0.0000  0.0021  0.1150 -0.0003 -0.0096
                                            0.0013 -0.1259  0.0003  0.0101 -0.1183
                                           -0.9662 -0.1291  0.0698  0.0405
    57. (0.00013) RY*( 6) C   7           s(  4.64%)p 4.28( 19.87%)d16.26( 75.48%)
                                            0.0000 -0.0094  0.2153 -0.0207  0.2320
                                           -0.0091  0.3746  0.0024 -0.0637 -0.7954
                                            0.0758 -0.1310 -0.2717  0.1597
    58. (0.00008) RY*( 7) C   7           s( 12.89%)p 0.07(  0.89%)d 6.69( 86.22%)
    59. (0.00001) RY*( 8) C   7           s(  0.85%)p16.71( 14.25%)d99.56( 84.90%)
    60. (0.00001) RY*( 9) C   7           s(  0.00%)p 1.00(  0.28%)d99.99( 99.72%)
    61. (0.00426) RY*( 1) H   8           s( 99.79%)p 0.00(  0.21%)
                                            0.0059  0.9989  0.0002  0.0298 -0.0345
    62. (0.00016) RY*( 2) H   8           s(  0.00%)p 1.00(100.00%)
                                            0.0051 -0.0022  0.0469 -0.7241 -0.6881
    63. (0.00013) RY*( 3) H   8           s(  0.00%)p 1.00(100.00%)
                                            0.0020  0.0038 -0.9955 -0.0905  0.0273
    64. (0.00005) RY*( 4) H   8           s(  0.28%)p99.99( 99.72%)
    65. (0.00292) RY*( 1) H   9           s( 99.31%)p 0.01(  0.69%)
                                            0.0056  0.9965 -0.0087  0.0730  0.0386
    66. (0.00019) RY*( 2) H   9           s(  0.01%)p 1.00( 99.99%)
                                            0.0054  0.0070  0.6917 -0.3485  0.6325
    67. (0.00016) RY*( 3) H   9           s(  0.01%)p99.99( 99.99%)
                                            0.0018  0.0119 -0.7066 -0.5072  0.4932
    68. (0.00004) RY*( 4) H   9           s(  0.75%)p99.99( 99.25%)
    69. (0.00281) RY*( 1) C  10           s(  7.58%)p10.93( 82.85%)d 1.26(  9.57%)
                                           -0.0000  0.0136  0.2750 -0.0158 -0.6342
                                           -0.0114 -0.6507  0.0001  0.0499  0.2100
                                           -0.0068  0.0046  0.2201 -0.0560
    70. (0.00128) RY*( 2) C  10           s(  0.00%)p 1.00( 73.08%)d 0.37( 26.92%)
                                            0.0000 -0.0001  0.0018  0.0002 -0.0065
                                           -0.0008 -0.0530 -0.0102 -0.8531  0.0251
                                            0.3951 -0.3323  0.0211  0.0394
    71. (0.00026) RY*( 3) C  10           s(  7.83%)p11.65( 91.25%)d 0.12(  0.92%)
                                           -0.0000  0.0169  0.2793  0.0087 -0.6419
                                           -0.0071  0.7067  0.0005 -0.0295 -0.0866
                                            0.0280  0.0001 -0.0248 -0.0184
    72. (0.00011) RY*( 4) C  10           s( 63.46%)p 0.14(  8.92%)d 0.44( 27.62%)
                                            0.0000 -0.0063  0.7966  0.0028  0.2548
                                            0.0042 -0.1452 -0.0015  0.0560 -0.3970
                                            0.0945 -0.0618 -0.3248 -0.0200
    73. (0.00001) RY*( 5) C  10           s( 14.28%)p 0.74( 10.61%)d 5.26( 75.10%)
    74. (0.00000) RY*( 6) C  10           s(  1.74%)p10.02( 17.45%)d46.40( 80.81%)
    75. (0.00000) RY*( 7) C  10           s(  0.24%)p37.54(  9.07%)d99.99( 90.69%)
    76. (0.00001) RY*( 8) C  10           s(  4.78%)p 1.36(  6.49%)d18.58( 88.73%)
    77. (0.00000) RY*( 9) C  10           s(  0.14%)p 2.99(  0.41%)d99.99( 99.45%)
    78. (0.00179) RY*( 1) H  11           s( 97.51%)p 0.03(  2.49%)
                                            0.0049  0.9874  0.0890 -0.1186 -0.0544
    79. (0.00020) RY*( 2) H  11           s(  0.04%)p99.99( 99.96%)
                                            0.0008  0.0191  0.4374  0.7290 -0.5262
    80. (0.00014) RY*( 3) H  11           s(  0.23%)p99.99( 99.77%)
                                            0.0089  0.0471 -0.8056  0.0579 -0.5877
    81. (0.00003) RY*( 4) H  11           s(  2.30%)p42.42( 97.70%)
    82. (0.00152) RY*( 1) H  12           s( 96.86%)p 0.03(  3.14%)
                                            0.0043  0.9842  0.1770  0.0085  0.0053
    83. (0.00020) RY*( 2) H  12           s(  0.01%)p 1.00( 99.99%)
                                            0.0003  0.0083 -0.0154 -0.0246 -0.9995
    84. (0.00014) RY*( 3) H  12           s(  0.34%)p99.99( 99.66%)
                                            0.0098  0.0576 -0.3646  0.9292 -0.0168
    85. (0.00003) RY*( 4) H  12           s(  2.87%)p33.83( 97.13%)
    86. (0.00204) RY*( 1) H  13           s( 98.18%)p 0.02(  1.82%)
                                            0.0048  0.9908  0.0683 -0.1003  0.0589
    87. (0.00021) RY*( 2) H  13           s(  0.03%)p99.99( 99.97%)
                                            0.0006  0.0168  0.5070  0.7555  0.4146
    88. (0.00015) RY*( 3) H  13           s(  0.17%)p99.99( 99.83%)
                                            0.0077  0.0409 -0.7864  0.2087  0.5798
    89. (0.00004) RY*( 4) H  13           s(  1.69%)p58.01( 98.31%)
    90. (0.00563) BD*( 1) N   1 - H   2
                ( 32.40%)   0.5692* N   1 s( 24.25%)p 3.12( 75.68%)d 0.00(  0.07%)
                                            0.0001  0.4923  0.0090 -0.6678  0.0307
                                           -0.5565  0.0078  0.0096  0.0095  0.0190
                                           -0.0120 -0.0080 -0.0039 -0.0106
                ( 67.60%)  -0.8222* H   2 s( 99.83%)p 0.00(  0.17%)
                                            0.9991 -0.0025  0.0313  0.0271  0.0043
    91. (0.00775) BD*( 1) N   1 - H   3
                ( 32.53%)   0.5704* N   1 s( 24.61%)p 3.06( 75.32%)d 0.00(  0.07%)
                                           -0.0001 -0.4960 -0.0063  0.1360 -0.0175
                                           -0.6123  0.0310 -0.5987  0.0113  0.0000
                                            0.0047 -0.0195  0.0010 -0.0169
                ( 67.47%)  -0.8214* H   3 s( 99.83%)p 0.00(  0.17%)
                                           -0.9991  0.0033 -0.0051  0.0323  0.0253
    92. (0.00943) BD*( 1) N   1 - C   4
                ( 39.75%)   0.6304* N   1 s( 32.92%)p 2.04( 67.02%)d 0.00(  0.06%)
                                           -0.0002  0.5738  0.0007  0.7290  0.0004
                                           -0.3665  0.0060  0.0659  0.0051 -0.0149
                                            0.0138 -0.0038  0.0043 -0.0103
                ( 60.25%)  -0.7762* C   4 s( 22.70%)p 3.40( 77.16%)d 0.01(  0.14%)
                                            0.0002  0.4753  0.0329 -0.7861 -0.0277
                                            0.3807  0.0019 -0.0889 -0.0090 -0.0253
                                            0.0043 -0.0020  0.0197 -0.0177
    93. (0.01741) BD*( 1) C   4 - H   5
                ( 40.18%)   0.6339* C   4 s( 24.68%)p 3.05( 75.27%)d 0.00(  0.05%)
                                           -0.0001  0.4968 -0.0056  0.0860 -0.0087
                                           -0.5891 -0.0014 -0.6309  0.0098 -0.0016
                                           -0.0034  0.0192 -0.0093  0.0067
                ( 59.82%)  -0.7735* H   5 s( 99.92%)p 0.00(  0.08%)
                                            0.9996 -0.0038 -0.0038  0.0195  0.0207
    94. (0.02587) BD*( 1) C   4 - H   6
                ( 40.98%)   0.6402* C   4 s( 24.41%)p 3.09( 75.53%)d 0.00(  0.06%)
                                           -0.0000  0.4939 -0.0126  0.0150 -0.0059
                                           -0.4048 -0.0088  0.7688 -0.0089 -0.0000
                                            0.0016 -0.0162 -0.0056  0.0163
                ( 59.02%)  -0.7682* H   6 s( 99.92%)p 0.00(  0.08%)
                                            0.9996 -0.0054 -0.0012  0.0139 -0.0248
    95. (0.01806) BD*( 1) C   4 - C   7
                ( 50.14%)   0.7081* C   4 s( 28.25%)p 2.54( 71.71%)d 0.00(  0.04%)
                                            0.0003  0.5315 -0.0014  0.6099 -0.0112
                                            0.5855 -0.0083 -0.0450 -0.0003  0.0181
                                           -0.0018 -0.0001 -0.0003 -0.0096
                ( 49.86%)  -0.7061* C   7 s( 26.78%)p 2.73( 73.18%)d 0.00(  0.04%)
                                            0.0004  0.5175  0.0050 -0.6282 -0.0074
                                           -0.5788  0.0082  0.0451 -0.0006  0.0178
                                           -0.0022 -0.0014  0.0007 -0.0100
    96. (0.01512) BD*( 1) C   7 - H   8
                ( 39.29%)   0.6269* C   7 s( 23.71%)p 3.21( 76.24%)d 0.00(  0.05%)
                                            0.0001 -0.4869  0.0050  0.0737  0.0001
                                           -0.4575 -0.0100  0.7399 -0.0092  0.0017
                                           -0.0022  0.0160  0.0048 -0.0128
                ( 60.71%)  -0.7791* H   8 s( 99.92%)p 0.00(  0.08%)
                                           -0.9996  0.0046 -0.0040  0.0154 -0.0238
    97. (0.01498) BD*( 1) C   7 - H   9
                ( 40.06%)   0.6329* C   7 s( 23.33%)p 3.28( 76.62%)d 0.00(  0.05%)
                                            0.0001 -0.4830  0.0051  0.0690 -0.0041
                                           -0.5587 -0.0097 -0.6701  0.0104  0.0020
                                            0.0023 -0.0185  0.0071 -0.0094
                ( 59.94%)  -0.7742* H   9 s( 99.92%)p 0.00(  0.08%)
                                           -0.9996  0.0034 -0.0016  0.0189  0.0207
    98. (0.00720) BD*( 1) C   7 - C  10
                ( 49.97%)   0.7069* C   7 s( 26.14%)p 2.82( 73.82%)d 0.00(  0.04%)
                                           -0.0002 -0.5112 -0.0086 -0.7710 -0.0076
                                            0.3778 -0.0151 -0.0260  0.0009  0.0150
                                           -0.0015  0.0006 -0.0094  0.0100
                ( 50.03%)  -0.7073* C  10 s( 27.83%)p 2.59( 72.13%)d 0.00(  0.04%)
                                           -0.0004 -0.5275  0.0003  0.7524 -0.0121
                                           -0.3931 -0.0101  0.0224  0.0012  0.0135
                                           -0.0006  0.0004 -0.0097  0.0097
    99. (0.00786) BD*( 1) C  10 - H  11
                ( 39.87%)   0.6314* C  10 s( 24.11%)p 3.15( 75.84%)d 0.00(  0.05%)
                                           -0.0000 -0.4910  0.0022 -0.0826 -0.0160
                                            0.5396  0.0024  0.6783 -0.0007  0.0013
                                            0.0025 -0.0177  0.0073 -0.0088
                ( 60.13%)  -0.7754* H  11 s( 99.92%)p 0.00(  0.08%)
                                           -0.9996  0.0015  0.0037 -0.0168 -0.0217
   100. (0.00563) BD*( 1) C  10 - H  12
                ( 39.59%)   0.6292* C  10 s( 23.99%)p 3.17( 75.97%)d 0.00(  0.04%)
                                           -0.0000 -0.4898 -0.0048 -0.6481 -0.0038
                                           -0.5819  0.0102  0.0296 -0.0005 -0.0185
                                            0.0009  0.0008 -0.0010  0.0098
                ( 60.41%)  -0.7772* H  12 s( 99.92%)p 0.00(  0.08%)
                                           -0.9996  0.0005  0.0206  0.0186 -0.0011
   101. (0.00818) BD*( 1) C  10 - H  13
                ( 39.93%)   0.6319* C  10 s( 24.02%)p 3.16( 75.94%)d 0.00(  0.05%)
                                           -0.0000 -0.4901  0.0021 -0.0795 -0.0157
                                            0.4636  0.0029 -0.7334  0.0004  0.0009
                                           -0.0024  0.0165  0.0054 -0.0121
                ( 60.07%)  -0.7751* H  13 s( 99.92%)p 0.00(  0.08%)
                                           -0.9996  0.0017  0.0036 -0.0144  0.0234


 NHO Directionality and "Bond Bending" (deviations from line of nuclear centers)

         [Thresholds for printing:  angular deviation  >  1.0 degree]
                                    hybrid p-character > 25.0%
                                    orbital occupancy  >  0.10e

                                Line of Centers        Hybrid 1              Hybrid 2
                                ---------------  -------------------   ------------------
                NBO               Theta   Phi    Theta   Phi    Dev    Theta   Phi    Dev
 ========================================================================================
     1. BD (   1) N   1 - H   2    87.0  223.2    88.7  220.7   3.0      --     --    --
     2. BD (   1) N   1 - H   3    43.2  100.3    45.3  101.5   2.2      --     --    --
     3. BD (   1) N   1 - C   4    83.9  333.1    85.0  333.7   1.3     96.2  154.8   1.7
     4. BD (   1) C   4 - H   5   136.8  280.3   136.2  277.5   2.0      --     --    --
     5. BD (   1) C   4 - H   6    27.4  274.5    28.6  271.3   1.9      --     --    --
     6. BD (   1) C   4 - C   7    93.0   43.2     --     --    --      87.0  221.9   1.2
     7. BD (   1) C   7 - H   8   148.7   99.4   147.1   99.0   1.6      --     --    --
     8. BD (   1) C   7 - H   9    39.2   96.9    40.9   96.5   1.7      --     --    --
     9. BD (   1) C   7 - C  10    88.4  332.7    88.3  335.0   2.3     91.6  151.4   1.3
    10. BD (   1) C  10 - H  11   141.6  277.6   140.9  280.3   1.8      --     --    --
    11. BD (   1) C  10 - H  12    92.0   43.2    91.9   41.3   1.9      --     --    --
    12. BD (   1) C  10 - H  13    32.2  278.4    33.0  281.5   1.9      --     --    --
    17. LP (   1) N   1             --     --    152.0   96.0   --       --     --    --


 Second Order Perturbation Theory Analysis of Fock Matrix in NBO Basis

     Threshold for printing:   0.50 kcal/mol
                                                                              E(2)  E(j)-E(i) F(i,j)
         Donor NBO (i)                     Acceptor NBO (j)                 kcal/mol   a.u.    a.u.
 ===================================================================================================

 within unit  1
   1. BD (   1) N   1 - H   2        / 95. BD*(   1) C   4 - C   7            2.85    0.99    0.048
   2. BD (   1) N   1 - H   3        / 36. RY*(   2) C   4                    0.54    1.60    0.026
   2. BD (   1) N   1 - H   3        / 93. BD*(   1) C   4 - H   5            2.59    1.10    0.048
   3. BD (   1) N   1 - C   4        / 27. RY*(   1) H   2                    0.52    1.21    0.022
   3. BD (   1) N   1 - C   4        / 52. RY*(   1) C   7                    0.76    1.42    0.029
   3. BD (   1) N   1 - C   4        / 98. BD*(   1) C   7 - C  10            1.89    1.08    0.040
   4. BD (   1) C   4 - H   5        / 19. RY*(   2) N   1                    0.51    1.85    0.027
   4. BD (   1) C   4 - H   5        / 91. BD*(   1) N   1 - H   3            2.86    0.97    0.047
   4. BD (   1) C   4 - H   5        / 97. BD*(   1) C   7 - H   9            2.77    1.00    0.047
   5. BD (   1) C   4 - H   6        / 18. RY*(   1) N   1                    0.71    1.48    0.029
   5. BD (   1) C   4 - H   6        / 96. BD*(   1) C   7 - H   8            2.80    1.01    0.047
   6. BD (   1) C   4 - C   7        / 18. RY*(   1) N   1                    0.81    1.55    0.032
   6. BD (   1) C   4 - C   7        / 69. RY*(   1) C  10                    1.23    1.41    0.037
   6. BD (   1) C   4 - C   7        / 90. BD*(   1) N   1 - H   2            1.99    1.05    0.041
   6. BD (   1) C   4 - C   7        / 93. BD*(   1) C   4 - H   5            0.69    1.07    0.024
   6. BD (   1) C   4 - C   7        / 94. BD*(   1) C   4 - H   6            0.52    1.07    0.021
   6. BD (   1) C   4 - C   7        / 96. BD*(   1) C   7 - H   8            0.66    1.08    0.024
   6. BD (   1) C   4 - C   7        / 97. BD*(   1) C   7 - H   9            0.61    1.07    0.023
   6. BD (   1) C   4 - C   7        / 98. BD*(   1) C   7 - C  10            0.80    0.97    0.025
   6. BD (   1) C   4 - C   7        /100. BD*(   1) C  10 - H  12            1.84    1.07    0.040
   7. BD (   1) C   7 - H   8        / 94. BD*(   1) C   4 - H   6            2.71    0.98    0.046
   7. BD (   1) C   7 - H   8        /101. BD*(   1) C  10 - H  13            2.81    0.97    0.047
   8. BD (   1) C   7 - H   9        / 93. BD*(   1) C   4 - H   5            2.80    0.99    0.047
   8. BD (   1) C   7 - H   9        / 99. BD*(   1) C  10 - H  11            2.73    0.98    0.046
   9. BD (   1) C   7 - C  10        / 35. RY*(   1) C   4                    0.90    1.58    0.034
   9. BD (   1) C   7 - C  10        / 92. BD*(   1) N   1 - C   4            2.55    0.94    0.044
   9. BD (   1) C   7 - C  10        / 95. BD*(   1) C   4 - C   7            0.69    0.96    0.023
   9. BD (   1) C   7 - C  10        / 96. BD*(   1) C   7 - H   8            0.63    1.08    0.023
   9. BD (   1) C   7 - C  10        / 97. BD*(   1) C   7 - H   9            0.67    1.07    0.024
   9. BD (   1) C   7 - C  10        / 99. BD*(   1) C  10 - H  11            0.56    1.06    0.022
   9. BD (   1) C   7 - C  10        /100. BD*(   1) C  10 - H  12            0.73    1.07    0.025
   9. BD (   1) C   7 - C  10        /101. BD*(   1) C  10 - H  13            0.57    1.06    0.022
  10. BD (   1) C  10 - H  11        / 97. BD*(   1) C   7 - H   9            2.90    0.99    0.048
  11. BD (   1) C  10 - H  12        / 95. BD*(   1) C   4 - C   7            2.97    0.89    0.046
  12. BD (   1) C  10 - H  13        / 96. BD*(   1) C   7 - H   8            2.79    1.00    0.047
  13. CR (   1) N   1                / 39. RY*(   5) C   4                    0.60   14.97    0.084
  13. CR (   1) N   1                / 40. RY*(   6) C   4                    0.79   15.28    0.098
  14. CR (   1) C   4                / 44. RY*(   1) H   5                    0.64   10.45    0.073
  14. CR (   1) C   4                / 48. RY*(   1) H   6                    0.57   10.45    0.069
  15. CR (   1) C   7                / 39. RY*(   5) C   4                    0.54   10.88    0.069
  15. CR (   1) C   7                / 61. RY*(   1) H   8                    0.69   10.42    0.076
  15. CR (   1) C   7                / 65. RY*(   1) H   9                    0.64   10.44    0.073
  15. CR (   1) C   7                / 71. RY*(   3) C  10                    1.01   10.61    0.092
  16. CR (   1) C  10                / 52. RY*(   1) C   7                    0.56   10.78    0.069
  16. CR (   1) C  10                / 78. RY*(   1) H  11                    0.66   10.48    0.074
  16. CR (   1) C  10                / 82. RY*(   1) H  12                    0.65   10.48    0.074
  16. CR (   1) C  10                / 86. RY*(   1) H  13                    0.65   10.46    0.074
  17. LP (   1) N   1                / 28. RY*(   2) H   2                    1.14    1.99    0.043
  17. LP (   1) N   1                / 32. RY*(   2) H   3                    1.11    1.96    0.042
  17. LP (   1) N   1                / 37. RY*(   3) C   4                    0.68    2.36    0.036
  17. LP (   1) N   1                / 93. BD*(   1) C   4 - H   5            1.20    0.78    0.027
  17. LP (   1) N   1                / 94. BD*(   1) C   4 - H   6            6.73    0.78    0.065
  17. LP (   1) N   1                / 95. BD*(   1) C   4 - C   7            0.83    0.67    0.021


 Natural Bond Orbitals (Summary):

                                                            Principal Delocalizations
           NBO                        Occupancy    Energy   (geminal,vicinal,remote)
 ====================================================================================
 Molecular unit  1  (C3H9N)
     1. BD (   1) N   1 - H   2          1.99015    -0.59361  95(v)
     2. BD (   1) N   1 - H   3          1.99111    -0.59614  93(v),36(v)
     3. BD (   1) N   1 - C   4          1.99202    -0.67984  98(v),52(v),27(v)
     4. BD (   1) C   4 - H   5          1.98144    -0.49248  91(v),97(v),19(v)
     5. BD (   1) C   4 - H   6          1.98834    -0.49237  96(v),18(v)
     6. BD (   1) C   4 - C   7          1.98148    -0.56945  90(v),100(v),69(v),18(v)
                                                    98(g),93(g),96(g),97(g)
                                                    94(g)
     7. BD (   1) C   7 - H   8          1.98001    -0.47819  101(v),94(v)
     8. BD (   1) C   7 - H   9          1.98033    -0.48409  93(v),99(v)
     9. BD (   1) C   7 - C  10          1.98611    -0.56614  92(v),35(v),100(g),95(g)
                                                    97(g),96(g),101(g),99(g)
    10. BD (   1) C  10 - H  11          1.98992    -0.48923  97(v)
    11. BD (   1) C  10 - H  12          1.98915    -0.48728  95(v)
    12. BD (   1) C  10 - H  13          1.99018    -0.48934  96(v)
    13. CR (   1) N   1                  1.99950   -14.14520  40(v),39(v)
    14. CR (   1) C   4                  1.99921   -10.07610  44(v),48(v)
    15. CR (   1) C   7                  1.99918   -10.04787  71(v),61(v),65(v),39(v)
    16. CR (   1) C  10                  1.99927   -10.04545  78(v),86(v),82(v),52(v)
    17. LP (   1) N   1                  1.96708    -0.27567  94(v),93(v),28(v),32(v)
                                                    95(v),37(v)
    18. RY*(   1) N   1                  0.00264     0.98368
    19. RY*(   2) N   1                  0.00113     1.35579
    20. RY*(   3) N   1                  0.00013     1.03706
    21. RY*(   4) N   1                  0.00005     1.38237
    22. RY*(   5) N   1                  0.00002     2.73479
    23. RY*(   6) N   1                  0.00000     2.32318
    24. RY*(   7) N   1                  0.00000     2.66368
    25. RY*(   8) N   1                  0.00000     2.05898
    26. RY*(   9) N   1                  0.00000     2.69741
    27. RY*(   1) H   2                  0.00254     0.52671
    28. RY*(   2) H   2                  0.00091     1.70946
    29. RY*(   3) H   2                  0.00048     1.80583
    30. RY*(   4) H   2                  0.00002     2.35481
    31. RY*(   1) H   3                  0.00259     0.54580
    32. RY*(   2) H   3                  0.00093     1.68753
    33. RY*(   3) H   3                  0.00050     1.80129
    34. RY*(   4) H   3                  0.00002     2.34867
    35. RY*(   1) C   4                  0.00308     1.01011
    36. RY*(   2) C   4                  0.00233     1.00275
    37. RY*(   3) C   4                  0.00106     2.08864
    38. RY*(   4) C   4                  0.00066     1.64250
    39. RY*(   5) C   4                  0.00038     0.82835
    40. RY*(   6) C   4                  0.00025     1.13240
    41. RY*(   7) C   4                  0.00011     2.01182
    42. RY*(   8) C   4                  0.00004     1.93841
    43. RY*(   9) C   4                  0.00000     2.25397
    44. RY*(   1) H   5                  0.00238     0.37497
    45. RY*(   2) H   5                  0.00019     1.83549
    46. RY*(   3) H   5                  0.00010     1.92229
    47. RY*(   4) H   5                  0.00003     2.27547
    48. RY*(   1) H   6                  0.00297     0.37668
    49. RY*(   2) H   6                  0.00018     1.82118
    50. RY*(   3) H   6                  0.00015     1.90045
    51. RY*(   4) H   6                  0.00002     2.32968
    52. RY*(   1) C   7                  0.00316     0.73782
    53. RY*(   2) C   7                  0.00252     1.01656
    54. RY*(   3) C   7                  0.00093     1.09922
    55. RY*(   4) C   7                  0.00045     0.87560
    56. RY*(   5) C   7                  0.00031     2.01733
    57. RY*(   6) C   7                  0.00013     1.84261
    58. RY*(   7) C   7                  0.00008     2.02612
    59. RY*(   8) C   7                  0.00001     2.19080
    60. RY*(   9) C   7                  0.00001     2.25928
    61. RY*(   1) H   8                  0.00426     0.36898
    62. RY*(   2) H   8                  0.00016     1.84488
    63. RY*(   3) H   8                  0.00013     1.82073
    64. RY*(   4) H   8                  0.00005     2.40316
    65. RY*(   1) H   9                  0.00292     0.38764
    66. RY*(   2) H   9                  0.00019     1.87811
    67. RY*(   3) H   9                  0.00016     1.80331
    68. RY*(   4) H   9                  0.00004     2.36960
    69. RY*(   1) C  10                  0.00281     0.84203
    70. RY*(   2) C  10                  0.00128     1.03303
    71. RY*(   3) C  10                  0.00026     0.56417
    72. RY*(   4) C  10                  0.00011     1.21182
    73. RY*(   5) C  10                  0.00001     1.94646
    74. RY*(   6) C  10                  0.00000     1.84575
    75. RY*(   7) C  10                  0.00000     2.26886
    76. RY*(   8) C  10                  0.00001     2.03643
    77. RY*(   9) C  10                  0.00000     2.35394
    78. RY*(   1) H  11                  0.00179     0.43412
    79. RY*(   2) H  11                  0.00020     1.81470
    80. RY*(   3) H  11                  0.00014     1.83451
    81. RY*(   4) H  11                  0.00003     2.28203
    82. RY*(   1) H  12                  0.00152     0.43676
    83. RY*(   2) H  12                  0.00020     1.80771
    84. RY*(   3) H  12                  0.00014     1.84326
    85. RY*(   4) H  12                  0.00003     2.26369
    86. RY*(   1) H  13                  0.00204     0.41688
    87. RY*(   2) H  13                  0.00021     1.81210
    88. RY*(   3) H  13                  0.00015     1.81235
    89. RY*(   4) H  13                  0.00004     2.31281
    90. BD*(   1) N   1 - H   2          0.00563     0.48408
    91. BD*(   1) N   1 - H   3          0.00775     0.48150
    92. BD*(   1) N   1 - C   4          0.00943     0.37262
    93. BD*(   1) C   4 - H   5          0.01741     0.50546
    94. BD*(   1) C   4 - H   6          0.02587     0.50245
    95. BD*(   1) C   4 - C   7          0.01806     0.39849
    96. BD*(   1) C   7 - H   8          0.01512     0.51363
    97. BD*(   1) C   7 - H   9          0.01498     0.50260
    98. BD*(   1) C   7 - C  10          0.00720     0.39874
    99. BD*(   1) C  10 - H  11          0.00786     0.49433
   100. BD*(   1) C  10 - H  12          0.00563     0.50010
   101. BD*(   1) C  10 - H  13          0.00818     0.49386
       -------------------------------
              Total Lewis   33.80446  ( 99.4249%)
        Valence non-Lewis    0.14314  (  0.4210%)
        Rydberg non-Lewis    0.05240  (  0.1541%)
       -------------------------------
            Total unit  1   34.00000  (100.0000%)
           Charge unit  1    0.00000
 1\1\GINC-BADBAY\SP\RB3LYP\def2SVP\C3H9N1\KOERSTZ\17-Aug-2021\0\\# b3ly
 p/def2svp pop=(hirshfeld,nboread)\\Title Card Required\\0,1\N,0,-0.362
 00653,0.53368575,1.20024987\H,0,0.63798422,0.52989378,1.2022783\H,0,-0
 .69175894,1.47775103,1.19822561\C,0,-0.85220362,-0.15914057,0.00000052
 \H,0,-0.49936836,-1.16929036,0.00216675\H,0,-0.49185873,0.34264952,-0.
 87364601\C,0,-2.39218938,-0.1533004,-0.00312301\H,0,-2.75232687,-0.579
 40767,0.90991236\H,0,-2.74486555,0.85311906,-0.09052658\C,0,-2.9062557
 6,-0.98267584,-1.19453903\H,0,-2.56902748,-1.993489,-1.09741115\H,0,-3
 .97600099,-0.96325971,-1.20750627\H,0,-2.53091462,-0.56753289,-2.10650
 14\\Version=ES64L-G16RevA.03\State=1-A\HF=-174.3508944\RMSD=1.462e-09\
 Dipole=0.1952584,0.2671984,-0.3619711\Quadrupole=1.4718691,1.363427,-2
 .8352961,0.61906,-0.2902814,0.2460042\PG=C01 [X(C3H9N1)]\\@


 NECESSARY EVIL: ONE WE LIKE TOO MUCH TO RELINQUISH.
 Job cpu time:       0 days  0 hours  0 minutes 24.1 seconds.
 Elapsed time:       0 days  0 hours  0 minutes 24.0 seconds.
 File lengths (MBytes):  RWF=     10 Int=      0 D2E=      0 Chk=      2 Scr=      1
 Normal termination of Gaussian 16 at Tue Aug 17 11:08:42 2021.
