                                 *****************
                                 * O   R   C   A *
                                 *****************

                                            #,                                       
                                            ###                                      
                                            ####                                     
                                            #####                                    
                                            ######                                   
                                           ########,                                 
                                     ,,################,,,,,                         
                               ,,#################################,,                 
                          ,,##########################################,,             
                       ,#########################################, ''#####,          
                    ,#############################################,,   '####,        
                  ,##################################################,,,,####,       
                ,###########''''           ''''###############################       
              ,#####''   ,,,,##########,,,,          '''####'''          '####       
            ,##' ,,,,###########################,,,                        '##       
           ' ,,###''''                  '''############,,,                           
         ,,##''                                '''############,,,,        ,,,,,,###''
      ,#''                                            '''#######################'''  
     '                                                          ''''####''''         
             ,#######,   #######,   ,#######,      ##                                
            ,#'     '#,  ##    ##  ,#'     '#,    #''#        ######   ,####,        
            ##       ##  ##   ,#'  ##            #'  '#       #        #'  '#        
            ##       ##  #######   ##           ,######,      #####,   #    #        
            '#,     ,#'  ##    ##  '#,     ,#' ,#      #,         ##   #,  ,#        
             '#######'   ##     ##  '#######'  #'      '#     #####' # '####'        



                  #######################################################
                  #                        -***-                        #
                  #          Department of theory and spectroscopy      #
                  #    Directorship and core code : Frank Neese         #
                  #        Max Planck Institute fuer Kohlenforschung    #
                  #                Kaiser Wilhelm Platz 1               #
                  #                 D-45470 Muelheim/Ruhr               #
                  #                      Germany                        #
                  #                                                     #
                  #                  All rights reserved                #
                  #                        -***-                        #
                  #######################################################


                         Program Version 5.0.2 -  RELEASE  -


 With contributions from (in alphabetic order):
   Daniel Aravena         : Magnetic Suceptibility
   Michael Atanasov       : Ab Initio Ligand Field Theory (pilot matlab implementation)
   Alexander A. Auer      : GIAO ZORA, VPT2 properties, NMR spectrum
   Ute Becker             : Parallelization
   Giovanni Bistoni       : ED, misc. LED, open-shell LED, HFLD
   Martin Brehm           : Molecular dynamics
   Dmytro Bykov           : SCF Hessian
   Vijay G. Chilkuri      : MRCI spin determinant printing, contributions to CSF-ICE
   Dipayan Datta          : RHF DLPNO-CCSD density
   Achintya Kumar Dutta   : EOM-CC, STEOM-CC
   Dmitry Ganyushin       : Spin-Orbit,Spin-Spin,Magnetic field MRCI
   Miquel Garcia          : C-PCM and meta-GGA Hessian, CC/C-PCM, Gaussian charge scheme
   Yang Guo               : DLPNO-NEVPT2, F12-NEVPT2, CIM, IAO-localization
   Andreas Hansen         : Spin unrestricted coupled pair/coupled cluster methods
   Benjamin Helmich-Paris : MC-RPA, TRAH-SCF, COSX integrals
   Lee Huntington         : MR-EOM, pCC
   Robert Izsak           : Overlap fitted RIJCOSX, COSX-SCS-MP3, EOM
   Marcus Kettner         : VPT2
   Christian Kollmar      : KDIIS, OOCD, Brueckner-CCSD(T), CCSD density, CASPT2, CASPT2-K
   Simone Kossmann        : Meta GGA functionals, TD-DFT gradient, OOMP2, MP2 Hessian
   Martin Krupicka        : Initial AUTO-CI
   Lucas Lang             : DCDCAS
   Marvin Lechner         : AUTO-CI (C++ implementation), FIC-MRCC
   Dagmar Lenk            : GEPOL surface, SMD
   Dimitrios Liakos       : Extrapolation schemes; Compound Job, initial MDCI parallelization
   Dimitrios Manganas     : Further ROCIS development; embedding schemes
   Dimitrios Pantazis     : SARC Basis sets
   Anastasios Papadopoulos: AUTO-CI, single reference methods and gradients
   Taras Petrenko         : DFT Hessian,TD-DFT gradient, ASA, ECA, R-Raman, ABS, FL, XAS/XES, NRVS
   Peter Pinski           : DLPNO-MP2, DLPNO-MP2 Gradient
   Christoph Reimann      : Effective Core Potentials
   Marius Retegan         : Local ZFS, SOC
   Christoph Riplinger    : Optimizer, TS searches, QM/MM, DLPNO-CCSD(T), (RO)-DLPNO pert. Triples
   Tobias Risthaus        : Range-separated hybrids, TD-DFT gradient, RPA, STAB
   Michael Roemelt        : Original ROCIS implementation
   Masaaki Saitow         : Open-shell DLPNO-CCSD energy and density
   Barbara Sandhoefer     : DKH picture change effects
   Avijit Sen             : IP-ROCIS
   Kantharuban Sivalingam : CASSCF convergence, NEVPT2, FIC-MRCI
   Bernardo de Souza      : ESD, SOC TD-DFT
   Georgi Stoychev        : AutoAux, RI-MP2 NMR, DLPNO-MP2 response
   Willem Van den Heuvel  : Paramagnetic NMR
   Boris Wezisla          : Elementary symmetry handling
   Frank Wennmohs         : Technical directorship


 We gratefully acknowledge several colleagues who have allowed us to
 interface, adapt or use parts of their codes:
   Stefan Grimme, W. Hujo, H. Kruse, P. Pracht,  : VdW corrections, initial TS optimization,
                  C. Bannwarth, S. Ehlert          DFT functionals, gCP, sTDA/sTD-DF
   Ed Valeev, F. Pavosevic, A. Kumar             : LibInt (2-el integral package), F12 methods
   Garnet Chan, S. Sharma, J. Yang, R. Olivares  : DMRG
   Ulf Ekstrom                                   : XCFun DFT Library
   Mihaly Kallay                                 : mrcc  (arbitrary order and MRCC methods)
   Jiri Pittner, Ondrej Demel                    : Mk-CCSD
   Frank Weinhold                                : gennbo (NPA and NBO analysis)
   Christopher J. Cramer and Donald G. Truhlar   : smd solvation model
   Lars Goerigk                                  : TD-DFT with DH, B97 family of functionals
   V. Asgeirsson, H. Jonsson                     : NEB implementation
   FAccTs GmbH                                   : IRC, NEB, NEB-TS, DLPNO-Multilevel, CI-OPT
                                                   MM, QMMM, 2- and 3-layer-ONIOM, Crystal-QMMM,
                                                   LR-CPCM, SF, NACMEs, symmetry and pop. for TD-DFT,
                                                   nearIR, NL-DFT gradient (VV10), updates on ESD,
                                                   ML-optimized integration grids
   S Lehtola, MJT Oliveira, MAL Marques          : LibXC Library
   Liviu Ungur et al                             : ANISO software


 Your calculation uses the libint2 library for the computation of 2-el integrals
 For citations please refer to: http://libint.valeyev.net

 Your ORCA version has been built with support for libXC version: 5.1.0
 For citations please refer to: https://tddft.org/programs/libxc/

 This ORCA versions uses:
   CBLAS   interface :  Fast vector & matrix operations
   LAPACKE interface :  Fast linear algebra routines
   SCALAPACK package :  Parallel linear algebra routines
   Shared memory     :  Shared parallel matrices
   BLAS/LAPACK       :  OpenBLAS 0.3.15  USE64BITINT DYNAMIC_ARCH NO_AFFINITY Zen SINGLE_THREADED
        Core in use  :  Zen
   Copyright (c) 2011-2014, The OpenBLAS Project


Your calculation utilizes the atom-pairwise dispersion correction
with the Becke-Johnson damping scheme (D3BJ)
Cite in your paper:
S.Grimme, S.Ehrlich, L.Goerigk, J Comput Chem, (2011), 32, 1456–1465 
S.Grimme, J.Antony, S.Ehrlich and H.Krieg, J.Chem.Phys., 132, (2010), 154104 
   


Information: The global flag for chemical shieldings has been found
             ==>> will calculate the chemical shieldings for all atoms in the system

================================================================================

----- Orbital basis set information -----
Your calculation utilizes the basis: def2-SVP
   F. Weigend and R. Ahlrichs, Phys. Chem. Chem. Phys. 7, 3297 (2005).

----- AuxJ basis set information -----
Your calculation utilizes the auxiliary basis: def2/J
   F. Weigend, Phys. Chem. Chem. Phys. 8, 1057 (2006).

----- AuxJK basis set information -----
Your calculation utilizes the auxiliary basis: def2/JK
   H-Ba, Hf-Rn: F. Weigend, J. Comput. Chem. 29, 167 (2008).

================================================================================
                                        WARNINGS
                       Please study these warnings very carefully!
================================================================================

WARNING: Gradients needed for Numerical Frequencies
  ===> : Setting RunTyp to EnGrad

WARNING: The environment variable RSH_COMMAND is not set!
  ===> : All Displacements for the Numerical Hessian or Gradient calculation
         will be started on localhost

INFO   : the flag for use of the SHARK integral package has been found!

================================================================================
                                       INPUT FILE
================================================================================
NAME = calc.inp
|  1> # ORCA 4.2 input generated by ppqm
|  2> 
|  3> # Number of cores
|  4> %pal nprocs 16 end
|  5> # RAM per core
|  6> %maxcore 1024
|  7> 
|  8> ! NumFreq 
|  9> ! B3LYP 
| 10> ! def2-SVP 
| 11> ! D3BJ 
| 12> ! Hirshfeld 
| 13> ! CPCM(water) 
| 14> ! RIJCOSX 
| 15> ! def2/J 
| 16> ! defgrid2 
| 17> ! NMR 
| 18> ! def2/JK 
| 19> 
| 20> 
| 21> *xyz 0 1 
| 22> C        -1.14041242     -0.33910732      0.60498953
| 23> C         0.03548117      0.57871390      0.37140253
| 24> C         1.26838965     -0.24957443      0.43817757
| 25> O         1.54126297     -0.86011017      1.51012891
| 26> O         2.12687580     -0.36924064     -0.64641876
| 27> N        -0.04754465      1.15497552     -0.92084901
| 28> O        -1.08590018     -1.33279738     -0.37583604
| 29> H        -1.04290559     -0.79731930      1.60259258
| 30> H        -2.05649620      0.26308146      0.49806415
| 31> H         0.05496848      1.33011208      1.16995710
| 32> H         2.60736747     -1.27094446     -0.75120843
| 33> H        -0.96414663      1.11626109     -1.38195741
| 34> H         0.48973789      2.02272607     -1.06406083
| 35> H        -1.78667775     -1.24677642     -1.05498188
| 36> *
| 37> 
| 38> 
| 39>                          ****END OF INPUT****
================================================================================

                     *******************************
                     * Energy+Gradient Calculation *
                     *******************************

---------------------------------
CARTESIAN COORDINATES (ANGSTROEM)
---------------------------------
  C     -1.140412   -0.339107    0.604990
  C      0.035481    0.578714    0.371403
  C      1.268390   -0.249574    0.438178
  O      1.541263   -0.860110    1.510129
  O      2.126876   -0.369241   -0.646419
  N     -0.047545    1.154976   -0.920849
  O     -1.085900   -1.332797   -0.375836
  H     -1.042906   -0.797319    1.602593
  H     -2.056496    0.263081    0.498064
  H      0.054968    1.330112    1.169957
  H      2.607367   -1.270944   -0.751208
  H     -0.964147    1.116261   -1.381957
  H      0.489738    2.022726   -1.064061
  H     -1.786678   -1.246776   -1.054982

----------------------------
CARTESIAN COORDINATES (A.U.)
----------------------------
  NO LB      ZA    FRAG     MASS         X           Y           Z
   0 C     6.0000    0    12.011   -2.155067   -0.640820    1.143265
   1 C     6.0000    0    12.011    0.067050    1.093611    0.701849
   2 C     6.0000    0    12.011    2.396909   -0.471627    0.828036
   3 O     8.0000    0    15.999    2.912565   -1.625373    2.853730
   4 O     8.0000    0    15.999    4.019213   -0.697764   -1.221554
   5 N     7.0000    0    14.007   -0.089846    2.182587   -1.740152
   6 O     8.0000    0    15.999   -2.052054   -2.518622   -0.710227
   7 H     1.0000    0     1.008   -1.970806   -1.506715    3.028461
   8 H     1.0000    0     1.008   -3.886215    0.497152    0.941205
   9 H     1.0000    0     1.008    0.103875    2.513548    2.210899
  10 H     1.0000    0     1.008    4.927210   -2.401737   -1.419578
  11 H     1.0000    0     1.008   -1.821973    2.109428   -2.611521
  12 H     1.0000    0     1.008    0.925470    3.822398   -2.010784
  13 H     1.0000    0     1.008   -3.376332   -2.356066   -1.993627

--------------------------------
INTERNAL COORDINATES (ANGSTROEM)
--------------------------------
 C      0   0   0     0.000000000000     0.00000000     0.00000000
 C      1   0   0     1.509862382290     0.00000000     0.00000000
 C      2   1   0     1.486803209452   107.47072232     0.00000000
 O      3   2   1     1.263445057734   119.10449883   298.90391414
 O      3   2   1     1.388404721472   121.71324515   118.90361218
 N      2   1   3     1.417351326984   110.03430241   117.86660858
 O      1   2   3     1.397286770287   107.05684655   302.13533665
 H      1   2   3     1.102124151755   108.89670526    60.61178743
 H      1   2   3     1.101487110966   107.47966480   183.19856835
 H      2   1   3     1.096662382607   108.52321689   241.63892413
 H      5   3   2     1.027094396285   116.39971073   213.04754724
 H      6   2   1     1.026780869212   116.51338481    17.53605067
 H      6   2   1     1.030617858472   116.00694395   159.15919448
 H      7   1   2     0.979657021699   113.34546020   251.38096750

---------------------------
INTERNAL COORDINATES (A.U.)
---------------------------
 C      0   0   0     0.000000000000     0.00000000     0.00000000
 C      1   0   0     2.853226402438     0.00000000     0.00000000
 C      2   1   0     2.809650880900   107.47072232     0.00000000
 O      3   2   1     2.387565144374   119.10449883   298.90391414
 O      3   2   1     2.623704686626   121.71324515   118.90361218
 N      2   1   3     2.678405843550   110.03430241   117.86660858
 O      1   2   3     2.640489326393   107.05684655   302.13533665
 H      1   2   3     2.082712812397   108.89670526    60.61178743
 H      1   2   3     2.081508979771   107.47966480   183.19856835
 H      2   1   3     2.072391564502   108.52321689   241.63892413
 H      5   3   2     1.940927122664   116.39971073   213.04754724
 H      6   2   1     1.940334642361   116.51338481    17.53605067
 H      6   2   1     1.947585501241   116.00694395   159.15919448
 H      7   1   2     1.851283476184   113.34546020   251.38096750

---------------------
BASIS SET INFORMATION
---------------------
There are 4 groups of distinct atoms

 Group   1 Type C   : 7s4p1d contracted to 3s2p1d pattern {511/31/1}
 Group   2 Type O   : 7s4p1d contracted to 3s2p1d pattern {511/31/1}
 Group   3 Type N   : 7s4p1d contracted to 3s2p1d pattern {511/31/1}
 Group   4 Type H   : 4s1p contracted to 2s1p pattern {31/1}

Atom   0C    basis set group =>   1
Atom   1C    basis set group =>   1
Atom   2C    basis set group =>   1
Atom   3O    basis set group =>   2
Atom   4O    basis set group =>   2
Atom   5N    basis set group =>   3
Atom   6O    basis set group =>   2
Atom   7H    basis set group =>   4
Atom   8H    basis set group =>   4
Atom   9H    basis set group =>   4
Atom  10H    basis set group =>   4
Atom  11H    basis set group =>   4
Atom  12H    basis set group =>   4
Atom  13H    basis set group =>   4
---------------------------------
AUXILIARY/J BASIS SET INFORMATION
---------------------------------
There are 4 groups of distinct atoms

 Group   1 Type C   : 12s5p4d2f1g contracted to 6s4p3d1f1g pattern {711111/2111/211/2/1}
 Group   2 Type O   : 12s5p4d2f1g contracted to 6s4p3d1f1g pattern {711111/2111/211/2/1}
 Group   3 Type N   : 12s5p4d2f1g contracted to 6s4p3d1f1g pattern {711111/2111/211/2/1}
 Group   4 Type H   : 5s2p1d contracted to 3s1p1d pattern {311/2/1}

Atom   0C    basis set group =>   1
Atom   1C    basis set group =>   1
Atom   2C    basis set group =>   1
Atom   3O    basis set group =>   2
Atom   4O    basis set group =>   2
Atom   5N    basis set group =>   3
Atom   6O    basis set group =>   2
Atom   7H    basis set group =>   4
Atom   8H    basis set group =>   4
Atom   9H    basis set group =>   4
Atom  10H    basis set group =>   4
Atom  11H    basis set group =>   4
Atom  12H    basis set group =>   4
Atom  13H    basis set group =>   4
----------------------------------
AUXILIARY/JK BASIS SET INFORMATION
----------------------------------
There are 4 groups of distinct atoms

 Group   1 Type C   : 14s10p6d2f1g contracted to 10s8p5d1f1g pattern {5111111111/31111111/21111/2/1}
 Group   2 Type O   : 14s10p6d2f1g contracted to 10s8p4d2f1g pattern {5111111111/31111111/3111/11/1}
 Group   3 Type N   : 14s10p6d2f1g contracted to 10s8p4d2f1g pattern {5111111111/31111111/3111/11/1}
 Group   4 Type H   : 4s2p2d contracted to 2s2p2d pattern {31/11/11}

Atom   0C    basis set group =>   1
Atom   1C    basis set group =>   1
Atom   2C    basis set group =>   1
Atom   3O    basis set group =>   2
Atom   4O    basis set group =>   2
Atom   5N    basis set group =>   3
Atom   6O    basis set group =>   2
Atom   7H    basis set group =>   4
Atom   8H    basis set group =>   4
Atom   9H    basis set group =>   4
Atom  10H    basis set group =>   4
Atom  11H    basis set group =>   4
Atom  12H    basis set group =>   4
Atom  13H    basis set group =>   4


           ************************************************************
           *        Program running with 16 parallel MPI-processes    *
           *              working on a common directory               *
           ************************************************************
------------------------------------------------------------------------------
                           ORCA GTO INTEGRAL CALCULATION
                           -- RI-GTO INTEGRALS CHOSEN --
------------------------------------------------------------------------------
------------------------------------------------------------------------------
                   ___                                                        
                  /   \      - P O W E R E D   B Y -                         
                 /     \                                                     
                 |  |  |   _    _      __       _____    __    __             
                 |  |  |  | |  | |    /  \     |  _  \  |  |  /  |          
                  \  \/   | |  | |   /    \    | | | |  |  | /  /          
                 / \  \   | |__| |  /  /\  \   | |_| |  |  |/  /          
                |  |  |   |  __  | /  /__\  \  |    /   |      \           
                |  |  |   | |  | | |   __   |  |    \   |  |\   \          
                \     /   | |  | | |  |  |  |  | |\  \  |  | \   \       
                 \___/    |_|  |_| |__|  |__|  |_| \__\ |__|  \__/        
                                                                              
                      - O R C A' S   B I G   F R I E N D -                    
                                      &                                       
                       - I N T E G R A L  F E E D E R -                       
                                                                              
 v1 FN, 2020, v2 2021                                                         
------------------------------------------------------------------------------


Reading SHARK input file calc.SHARKINP.tmp ... ok
----------------------
SHARK INTEGRAL PACKAGE
----------------------

Number of atoms                             ...     14
Number of basis functions                   ...    133
Number of shells                            ...     63
Maximum angular momentum                    ...      2
Integral batch strategy                     ... SHARK/LIBINT Hybrid
RI-J (if used) integral strategy            ... SPLIT-RIJ (Revised 2003 algorithm where possible)
Printlevel                                  ...      1
Contraction scheme used                     ... SEGMENTED contraction
Coulomb Range Separation                    ... NOT USED
Exchange Range Separation                   ... NOT USED
Finite Nucleus Model                        ... NOT USED
Auxiliary Coulomb fitting basis             ... AVAILABLE
   # of basis functions in Aux-J            ...    420
   # of shells in Aux-J                     ...    140
   Maximum angular momentum in Aux-J        ...      4
Auxiliary J/K fitting basis                 ... AVAILABLE
   # of basis functions in Aux-JK           ...    659
   # of shells in Aux-JK                    ...    217
   Maximum angular momentum in Aux-JK       ...      4
Auxiliary Correlation fitting basis         ... NOT available
Auxiliary 'external' fitting basis          ... NOT available
Integral threshold                          ...     2.500000e-11
Primitive cut-off                           ...     2.500000e-12
Primitive pair pre-selection threshold      ...     2.500000e-12

Calculating pre-screening integrals         ... done (  0.0 sec) Dimension = 63
Organizing shell pair data                  ... done (  0.0 sec)
Shell pair information
Total number of shell pairs                 ...      2016
Shell pairs after pre-screening             ...      1959
Total number of primitive shell pairs       ...      7252
Primitive shell pairs kept                  ...      5324
          la=0 lb=0:    606 shell pairs
          la=1 lb=0:    715 shell pairs
          la=1 lb=1:    228 shell pairs
          la=2 lb=0:    237 shell pairs
          la=2 lb=1:    145 shell pairs
          la=2 lb=2:     28 shell pairs

Calculating one electron integrals          ... done (  0.0 sec)
Calculating RI/J V-Matrix + Cholesky decomp.... done (  0.1 sec)
Calculating RI/JK V-Matrix + Cholesky decomp... done (  0.1 sec)
Calculating Nuclear repulsion               ... done (  0.0 sec) ENN=    329.159096310706 Eh

SHARK setup successfully completed in   0.4 seconds

Maximum memory used throughout the entire GTOINT-calculation: 10.8 MB


           ************************************************************
           *        Program running with 16 parallel MPI-processes    *
           *              working on a common directory               *
           ************************************************************
-------------------------------------------------------------------------------
                                 ORCA SCF
-------------------------------------------------------------------------------

------------
SCF SETTINGS
------------
Hamiltonian:
 Density Functional     Method          .... DFT(GTOs)
 Exchange Functional    Exchange        .... B88
   X-Alpha parameter    XAlpha          ....  0.666667
   Becke's b parameter  XBeta           ....  0.004200
 Correlation Functional Correlation     .... LYP
 LDA part of GGA corr.  LDAOpt          .... VWN-5
 Gradients option       PostSCFGGA      .... off
 Hybrid DFT is turned on
   Fraction HF Exchange ScalHFX         ....  0.200000
   Scaling of DF-GGA-X  ScalDFX         ....  0.720000
   Scaling of DF-GGA-C  ScalDFC         ....  0.810000
   Scaling of DF-LDA-C  ScalLDAC        ....  1.000000
   Perturbative correction              ....  0.000000
   Density functional embedding theory  .... OFF
   NL short-range parameter             ....  4.800000
 RI-approximation to the Coulomb term is turned on
   Number of AuxJ basis functions       .... 420
   RIJ-COSX (HFX calculated with COS-X)).... on


General Settings:
 Integral files         IntName         .... calc
 Hartree-Fock type      HFTyp           .... RHF
 Total Charge           Charge          ....    0
 Multiplicity           Mult            ....    1
 Number of Electrons    NEL             ....   56
 Basis Dimension        Dim             ....  133
 Nuclear Repulsion      ENuc            ....    329.1590963107 Eh

Convergence Acceleration:
 DIIS                   CNVDIIS         .... on
   Start iteration      DIISMaxIt       ....    12
   Startup error        DIISStart       ....  0.200000
   # of expansion vecs  DIISMaxEq       ....     5
   Bias factor          DIISBfac        ....   1.050
   Max. coefficient     DIISMaxC        ....  10.000
 Trust-Rad. Augm. Hess. CNVTRAH         .... auto
   Auto Start mean grad. ratio tolernc. ....  1.125000
   Auto Start start iteration           ....    20
   Auto Start num. interpolation iter.  ....    10
   Max. Number of Micro iterations      ....    16
   Max. Number of Macro iterations      .... Maxiter - #DIIS iter
   Number of Davidson start vectors     ....     2
   Converg. threshold I  (grad. norm)   ....   1.000e-05
   Converg. threshold II (energy diff.) ....   1.000e-08
   Grad. Scal. Fac. for Micro threshold ....   0.100
   Minimum threshold for Micro iter.    ....   0.010
   NR start threshold (gradient norm)   ....   0.001
   Initial trust radius                 ....   0.400
   Minimum AH scaling param. (alpha)    ....   1.000
   Maximum AH scaling param. (alpha)    .... 1000.000
   Orbital update algorithm             .... Taylor
   White noise on init. David. guess    .... on
   Maximum white noise                  ....   0.010
   Quad. conv. algorithm                .... NR
 SOSCF                  CNVSOSCF        .... on
   Start iteration      SOSCFMaxIt      ....   150
   Startup grad/error   SOSCFStart      ....  0.003300
 Level Shifting         CNVShift        .... on
   Level shift para.    LevelShift      ....    0.2500
   Turn off err/grad.   ShiftErr        ....    0.0010
 Zerner damping         CNVZerner       .... off
 Static damping         CNVDamp         .... on
   Fraction old density DampFac         ....    0.7000
   Max. Damping (<1)    DampMax         ....    0.9800
   Min. Damping (>=0)   DampMin         ....    0.0000
   Turn off err/grad.   DampErr         ....    0.1000
 Fernandez-Rico         CNVRico         .... off

SCF Procedure:
 Maximum # iterations   MaxIter         ....   125
 SCF integral mode      SCFMode         .... Direct
   Integral package                     .... SHARK and LIBINT hybrid scheme
 Reset frequency        DirectResetFreq ....    20
 Integral Threshold     Thresh          ....  2.500e-11 Eh
 Primitive CutOff       TCut            ....  2.500e-12 Eh

Convergence Tolerance:
 Convergence Check Mode ConvCheckMode   .... Total+1el-Energy
 Convergence forced     ConvForced      .... 0
 Energy Change          TolE            ....  1.000e-08 Eh
 1-El. energy change                    ....  1.000e-05 Eh
 Orbital Gradient       TolG            ....  1.000e-05
 Orbital Rotation angle TolX            ....  1.000e-05
 DIIS Error             TolErr          ....  5.000e-07


Diagonalization of the overlap matrix:
Smallest eigenvalue                        ... 1.252e-03
Time for diagonalization                   ...    0.005 sec
Threshold for overlap eigenvalues          ... 1.000e-08
Number of eigenvalues below threshold      ... 0
Time for construction of square roots      ...    0.020 sec
Total time needed                          ...    0.027 sec

Time for model grid setup =    0.088 sec

------------------------------
INITIAL GUESS: MODEL POTENTIAL
------------------------------
Loading Hartree-Fock densities                     ... done
Calculating cut-offs                               ... done
Initializing the effective Hamiltonian             ... done
Setting up the integral package (SHARK)            ... done
Starting the Coulomb interaction                   ... done (   0.1 sec)
Reading the grid                                   ... done
Mapping shells                                     ... done
Starting the XC term evaluation                    ... done (   0.0 sec)
  promolecular density results
     # of electrons  =     55.996108092
     EX              =    -48.654160355
     EC              =     -1.937010297
     EX+EC           =    -50.591170652
Transforming the Hamiltonian                       ... done (   0.0 sec)
Diagonalizing the Hamiltonian                      ... done (   0.0 sec)
Back transforming the eigenvectors                 ... done (   0.0 sec)
Now organizing SCF variables                       ... done
                      ------------------
                      INITIAL GUESS DONE (   0.3 sec)
                      ------------------
-------------------
DFT GRID GENERATION
-------------------

General Integration Accuracy     IntAcc      ... 4.388
Radial Grid Type                 RadialGrid  ... OptM3 with GC (2021)
Angular Grid (max. ang.)         AngularGrid ... 4 (Lebedev-302)
Angular grid pruning method      GridPruning ... 4 (adaptive)
Weight generation scheme         WeightScheme... Becke
Basis function cutoff            BFCut       ... 1.0000e-11
Integration weight cutoff        WCut        ... 1.0000e-14
Angular grids for H and He will be reduced by one unit
Partially contracted basis set               ... off
Rotationally invariant grid construction     ... off

Total number of grid points                  ...    64969
Total number of batches                      ...     1023
Average number of points per batch           ...       63
Average number of grid points per atom       ...     4641
Time for grid setup =    0.327 sec

--------------------
COSX GRID GENERATION
--------------------

GRIDX 1
-------
General Integration Accuracy     IntAcc      ... 3.816
Radial Grid Type                 RadialGrid  ... OptM3 with GC (2021)
Angular Grid (max. ang.)         AngularGrid ... 1 (Lebedev-50)
Angular grid pruning method      GridPruning ... 4 (adaptive)
Weight generation scheme         WeightScheme... Becke
Basis function cutoff            BFCut       ... 1.0000e-11
Integration weight cutoff        WCut        ... 1.0000e-14
Angular grids for H and He will be reduced by one unit
Partially contracted basis set               ... on
Rotationally invariant grid construction     ... off

Total number of grid points                  ...     8290
Total number of batches                      ...      136
Average number of points per batch           ...       60
Average number of grid points per atom       ...      592
UseSFitting                                  ... on

GRIDX 2
-------
General Integration Accuracy     IntAcc      ... 4.020
Radial Grid Type                 RadialGrid  ... OptM3 with GC (2021)
Angular Grid (max. ang.)         AngularGrid ... 2 (Lebedev-110)
Angular grid pruning method      GridPruning ... 4 (adaptive)
Weight generation scheme         WeightScheme... Becke
Basis function cutoff            BFCut       ... 1.0000e-11
Integration weight cutoff        WCut        ... 1.0000e-14
Angular grids for H and He will be reduced by one unit
Partially contracted basis set               ... on
Rotationally invariant grid construction     ... off

Total number of grid points                  ...    18085
Total number of batches                      ...      288
Average number of points per batch           ...       62
Average number of grid points per atom       ...     1292
UseSFitting                                  ... on

GRIDX 3
-------
General Integration Accuracy     IntAcc      ... 4.338
Radial Grid Type                 RadialGrid  ... OptM3 with GC (2021)
Angular Grid (max. ang.)         AngularGrid ... 3 (Lebedev-194)
Angular grid pruning method      GridPruning ... 4 (adaptive)
Weight generation scheme         WeightScheme... Becke
Basis function cutoff            BFCut       ... 1.0000e-11
Integration weight cutoff        WCut        ... 1.0000e-14
Angular grids for H and He will be reduced by one unit
Partially contracted basis set               ... on
Rotationally invariant grid construction     ... off

Total number of grid points                  ...    39754
Total number of batches                      ...      630
Average number of points per batch           ...       63
Average number of grid points per atom       ...     2840
UseSFitting                                  ... on

Time for X-Grid setup             =    0.467 sec


--------------------
CPCM SOLVATION MODEL
--------------------
CPCM parameters:
  Epsilon                                         ...      80.4000
  Refrac                                          ...       1.3300
  Rsolv                                           ...       1.3000
  Surface type                                    ... GAUSSIAN VDW
  Epsilon function type                           ...         CPCM
Radii:
 Radius for C  used is    3.8550 Bohr (=   2.0400 Ang.)
 Radius for O  used is    3.4469 Bohr (=   1.8240 Ang.)
 Radius for N  used is    3.5149 Bohr (=   1.8600 Ang.)
 Radius for H  used is    2.4944 Bohr (=   1.3200 Ang.)
Calculating surface                               ...        done! (  0.0s)
GEPOL surface points                              ...          839
GEPOL Volume                                      ...     828.2266
GEPOL Surface-area                                ...     501.8952
Calculating surface distance matrix               ...        done! (  0.0s)
Performing Cholesky decomposition & store         ...        done! (  0.0s)
Overall time for CPCM initialization              ...                 0.0s
--------------
SCF ITERATIONS
--------------
ITER       Energy         Delta-E        Max-DP      RMS-DP      [F,P]     Damp
               ***  Starting incremental Fock matrix formation  ***
  0   -398.1425239295   0.000000000000 0.17605704  0.00397930  0.2694078 0.7000
  1   -398.2858145782  -0.143290648673 0.11447163  0.00245539  0.1187259 0.7000
                               ***Turning on DIIS***
  2   -398.3342783883  -0.048463810136 0.10442226  0.00311887  0.0368521 0.0000
  3   -398.4185707646  -0.084292376260 0.09019444  0.00171288  0.0653474 0.0000
  4   -398.4345027091  -0.015931944525 0.01489949  0.00045408  0.0099401 0.0000
  5   -398.4353700667  -0.000867357557 0.00492372  0.00013617  0.0055056 0.0000
                      *** Initiating the SOSCF procedure ***
                           *** Shutting down DIIS ***
                      *** Re-Reading the Fockian *** 
                      *** Removing any level shift *** 
ITER      Energy       Delta-E        Grad      Rot      Max-DP    RMS-DP
  6   -398.43542874  -0.0000586738  0.000360  0.000360  0.001193  0.000047
               *** Restarting incremental Fock matrix formation ***
  7   -398.43539451   0.0000342279  0.000119  0.000390  0.000594  0.000034
  8   -398.43539425   0.0000002614  0.000235  0.000327  0.000436  0.000015
  9   -398.43539561  -0.0000013590  0.000061  0.000150  0.000186  0.000008
 10   -398.43539553   0.0000000796  0.000082  0.000091  0.000117  0.000004
 11   -398.43539566  -0.0000001336  0.000013  0.000022  0.000089  0.000002
 12   -398.43539566   0.0000000014  0.000016  0.000012  0.000050  0.000001
                  ***Gradient check signals convergence***
              ***Rediagonalizing the Fockian in SOSCF/NRSCF***

               *****************************************************
               *                     SUCCESS                       *
               *           SCF CONVERGED AFTER  13 CYCLES          *
               *****************************************************

Old exchange energy                            =     -9.855938033 Eh
New exchange energy                            =     -9.855927866 Eh
Exchange energy change after final integration =      0.000010167 Eh
Total energy after final integration           =   -398.435385502 Eh
Final COS-X integration done in                =     0.327 sec

----------------
TOTAL SCF ENERGY
----------------

Total Energy       :         -398.43538550 Eh          -10841.97804 eV

Components:
Nuclear Repulsion  :          329.15909631 Eh            8956.87437 eV
Electronic Energy  :         -727.59448181 Eh          -19798.85240 eV
One Electron Energy:        -1198.33667875 Eh          -32608.39881 eV
Two Electron Energy:          470.74219693 Eh           12809.54640 eV
Max COSX asymmetry :            0.00000443 Eh               0.00012 eV
CPCM Dielectric    :           -0.02684738 Eh              -0.73055 eV

Virial components:
Potential Energy   :         -793.44634686 Eh          -21590.77275 eV
Kinetic Energy     :          395.01096136 Eh           10748.79472 eV
Virial Ratio       :            2.00866919


DFT components:
N(Alpha)           :       28.000019519193 electrons
N(Beta)            :       28.000019519193 electrons
N(Total)           :       56.000039038385 electrons
E(X)               :      -39.214871289647 Eh       
E(C)               :       -2.285813160235 Eh       
E(XC)              :      -41.500684449882 Eh       
DFET-embed. en.    :        0.000000000000 Eh       
CPCM Solvation Model Properties:
Surface-charge          :           -0.01077756
Charge-correction       :           -0.00003259 Eh              -0.00089 eV
Free-energy (cav+disp)  :  This term is not implemented in the current solvation scheme

---------------
SCF CONVERGENCE
---------------

  Last Energy change         ...   -5.7724e-09  Tolerance :   1.0000e-08
  Last MAX-Density change    ...    3.1086e-15  Tolerance :   1.0000e-07
  Last RMS-Density change    ...    5.0320e-17  Tolerance :   5.0000e-09
  Last Orbital Gradient      ...    6.2626e-07  Tolerance :   1.0000e-05
  Last Orbital Rotation      ...    1.3042e-06  Tolerance :   1.0000e-05

             **** THE GBW FILE WAS UPDATED (calc.gbw) ****
             **** DENSITY calc.scfp WAS UPDATED ****
             **** ENERGY FILE WAS UPDATED (calc.en.tmp) ****
             **** THE GBW FILE WAS UPDATED (calc.gbw) ****
             **** DENSITY calc.scfp WAS UPDATED ****
----------------
ORBITAL ENERGIES
----------------

  NO   OCC          E(Eh)            E(eV) 
   0   2.0000     -19.166368      -521.5434 
   1   2.0000     -19.126376      -520.4552 
   2   2.0000     -19.114413      -520.1296 
   3   2.0000     -14.291856      -388.9012 
   4   2.0000     -10.312969      -280.6301 
   5   2.0000     -10.231711      -278.4190 
   6   2.0000     -10.215717      -277.9838 
   7   2.0000      -1.053842       -28.6765 
   8   2.0000      -1.008848       -27.4522 
   9   2.0000      -0.967845       -26.3364 
  10   2.0000      -0.873344       -23.7649 
  11   2.0000      -0.725597       -19.7445 
  12   2.0000      -0.649900       -17.6847 
  13   2.0000      -0.578639       -15.7456 
  14   2.0000      -0.530630       -14.4392 
  15   2.0000      -0.507947       -13.8219 
  16   2.0000      -0.482126       -13.1193 
  17   2.0000      -0.452766       -12.3204 
  18   2.0000      -0.442508       -12.0412 
  19   2.0000      -0.434359       -11.8195 
  20   2.0000      -0.405499       -11.0342 
  21   2.0000      -0.383193       -10.4272 
  22   2.0000      -0.358563        -9.7570 
  23   2.0000      -0.328633        -8.9426 
  24   2.0000      -0.304099        -8.2750 
  25   2.0000      -0.274018        -7.4564 
  26   2.0000      -0.272708        -7.4208 
  27   2.0000      -0.216188        -5.8828 
  28   0.0000      -0.012971        -0.3530 
  29   0.0000       0.048383         1.3166 
  30   0.0000       0.066537         1.8106 
  31   0.0000       0.092625         2.5205 
  32   0.0000       0.114411         3.1133 
  33   0.0000       0.133143         3.6230 
  34   0.0000       0.142073         3.8660 
  35   0.0000       0.169081         4.6009 
  36   0.0000       0.206590         5.6216 
  37   0.0000       0.218890         5.9563 
  38   0.0000       0.235593         6.4108 
  39   0.0000       0.273240         7.4352 
  40   0.0000       0.338613         9.2141 
  41   0.0000       0.367761        10.0073 
  42   0.0000       0.449681        12.2364 
  43   0.0000       0.485782        13.2188 
  44   0.0000       0.491981        13.3875 
  45   0.0000       0.504629        13.7316 
  46   0.0000       0.523644        14.2491 
  47   0.0000       0.561090        15.2680 
  48   0.0000       0.573322        15.6009 
  49   0.0000       0.580509        15.7965 
  50   0.0000       0.606518        16.5042 
  51   0.0000       0.620883        16.8951 
  52   0.0000       0.632721        17.2172 
  53   0.0000       0.652082        17.7441 
  54   0.0000       0.654467        17.8090 
  55   0.0000       0.662431        18.0257 
  56   0.0000       0.682004        18.5583 
  57   0.0000       0.715896        19.4805 
  58   0.0000       0.760053        20.6821 
  59   0.0000       0.792585        21.5673 
  60   0.0000       0.801230        21.8026 
  61   0.0000       0.822128        22.3712 
  62   0.0000       0.873021        23.7561 
  63   0.0000       0.929280        25.2870 
  64   0.0000       0.962822        26.1997 
  65   0.0000       0.978982        26.6394 
  66   0.0000       1.030569        28.0432 
  67   0.0000       1.034434        28.1484 
  68   0.0000       1.064465        28.9656 
  69   0.0000       1.077837        29.3294 
  70   0.0000       1.116729        30.3877 
  71   0.0000       1.133781        30.8518 
  72   0.0000       1.224026        33.3075 
  73   0.0000       1.279749        34.8238 
  74   0.0000       1.302849        35.4523 
  75   0.0000       1.323158        36.0050 
  76   0.0000       1.417302        38.5668 
  77   0.0000       1.431070        38.9414 
  78   0.0000       1.457520        39.6611 
  79   0.0000       1.483453        40.3668 
  80   0.0000       1.528852        41.6022 
  81   0.0000       1.552489        42.2454 
  82   0.0000       1.567083        42.6425 
  83   0.0000       1.601919        43.5904 
  84   0.0000       1.653800        45.0022 
  85   0.0000       1.689606        45.9765 
  86   0.0000       1.730719        47.0953 
  87   0.0000       1.762780        47.9677 
  88   0.0000       1.787998        48.6539 
  89   0.0000       1.809878        49.2493 
  90   0.0000       1.814154        49.3656 
  91   0.0000       1.831438        49.8360 
  92   0.0000       1.888299        51.3832 
  93   0.0000       1.896872        51.6165 
  94   0.0000       1.918082        52.1937 
  95   0.0000       1.933487        52.6129 
  96   0.0000       1.967005        53.5249 
  97   0.0000       1.982171        53.9376 
  98   0.0000       2.056612        55.9633 
  99   0.0000       2.081542        56.6416 
 100   0.0000       2.103087        57.2279 
 101   0.0000       2.141657        58.2774 
 102   0.0000       2.200785        59.8864 
 103   0.0000       2.213041        60.2199 
 104   0.0000       2.259212        61.4763 
 105   0.0000       2.333797        63.5058 
 106   0.0000       2.372730        64.5653 
 107   0.0000       2.428449        66.0815 
 108   0.0000       2.453016        66.7500 
 109   0.0000       2.557351        69.5891 
 110   0.0000       2.665782        72.5396 
 111   0.0000       2.706082        73.6362 
 112   0.0000       2.716024        73.9068 
 113   0.0000       2.745019        74.6958 
 114   0.0000       2.810760        76.4847 
 115   0.0000       2.840098        77.2830 
 116   0.0000       2.858385        77.7806 
 117   0.0000       2.890460        78.6534 
 118   0.0000       2.956145        80.4408 
 119   0.0000       2.966336        80.7181 
 120   0.0000       3.017068        82.0986 
 121   0.0000       3.030458        82.4630 
 122   0.0000       3.077800        83.7512 
 123   0.0000       3.092722        84.1572 
 124   0.0000       3.128738        85.1373 
 125   0.0000       3.209563        87.3367 
 126   0.0000       3.239169        88.1423 
 127   0.0000       3.377377        91.9031 
 128   0.0000       3.403295        92.6084 
 129   0.0000       3.523623        95.8827 
 130   0.0000       3.564328        96.9903 
 131   0.0000       3.675423       100.0133 
 132   0.0000       3.757875       102.2570 

                    ********************************
                    * MULLIKEN POPULATION ANALYSIS *
                    ********************************

-----------------------
MULLIKEN ATOMIC CHARGES
-----------------------
   0 C :    0.207046
   1 C :    0.070496
   2 C :    0.173186
   3 O :   -0.334450
   4 O :   -0.262870
   5 N :   -0.266828
   6 O :   -0.370483
   7 H :    0.013500
   8 H :    0.034086
   9 H :    0.029802
  10 H :    0.257327
  11 H :    0.113320
  12 H :    0.125335
  13 H :    0.210534
Sum of atomic charges:    0.0000000

--------------------------------
MULLIKEN REDUCED ORBITAL CHARGES
--------------------------------
  0 C s       :     2.990480  s :     2.990480
      pz      :     0.898125  p :     2.737126
      px      :     0.983774
      py      :     0.855227
      dz2     :     0.017077  d :     0.065348
      dxz     :     0.005978
      dyz     :     0.018011
      dx2y2   :     0.009173
      dxy     :     0.015110
  1 C s       :     2.984579  s :     2.984579
      pz      :     0.898554  p :     2.883816
      px      :     0.986164
      py      :     0.999097
      dz2     :     0.017946  d :     0.061110
      dxz     :     0.007818
      dyz     :     0.016328
      dx2y2   :     0.007101
      dxy     :     0.011917
  2 C s       :     3.105805  s :     3.105805
      pz      :     0.814658  p :     2.605500
      px      :     0.918999
      py      :     0.871843
      dz2     :     0.035068  d :     0.115510
      dxz     :     0.034454
      dyz     :     0.021658
      dx2y2   :     0.011754
      dxy     :     0.012576
  3 O s       :     3.763016  s :     3.763016
      pz      :     1.414624  p :     4.556554
      px      :     1.674013
      py      :     1.467917
      dz2     :     0.004634  d :     0.014880
      dxz     :     0.003111
      dyz     :     0.004822
      dx2y2   :     0.001349
      dxy     :     0.000965
  4 O s       :     3.709533  s :     3.709533
      pz      :     1.580829  p :     4.542890
      px      :     1.519360
      py      :     1.442701
      dz2     :     0.003000  d :     0.010448
      dxz     :     0.003102
      dyz     :     0.001113
      dx2y2   :     0.001652
      dxy     :     0.001580
  5 N s       :     3.377176  s :     3.377176
      pz      :     1.249372  p :     3.873648
      px      :     1.240925
      py      :     1.383351
      dz2     :     0.005510  d :     0.016003
      dxz     :     0.002736
      dyz     :     0.002351
      dx2y2   :     0.003289
      dxy     :     0.002117
  6 O s       :     3.728674  s :     3.728674
      pz      :     1.372742  p :     4.629839
      px      :     1.613198
      py      :     1.643899
      dz2     :     0.001264  d :     0.011970
      dxz     :     0.002928
      dyz     :     0.003247
      dx2y2   :     0.002717
      dxy     :     0.001815
  7 H s       :     0.965671  s :     0.965671
      pz      :     0.011984  p :     0.020828
      px      :     0.004304
      py      :     0.004541
  8 H s       :     0.944327  s :     0.944327
      pz      :     0.003323  p :     0.021587
      px      :     0.011571
      py      :     0.006692
  9 H s       :     0.949337  s :     0.949337
      pz      :     0.008402  p :     0.020861
      px      :     0.003549
      py      :     0.008909
 10 H s       :     0.683755  s :     0.683755
      pz      :     0.011603  p :     0.058917
      px      :     0.017098
      py      :     0.030216
 11 H s       :     0.842243  s :     0.842243
      pz      :     0.012973  p :     0.044437
      px      :     0.020780
      py      :     0.010685
 12 H s       :     0.830996  s :     0.830996
      pz      :     0.008789  p :     0.043668
      px      :     0.014647
      py      :     0.020233
 13 H s       :     0.723830  s :     0.723830
      pz      :     0.025848  p :     0.065636
      px      :     0.025632
      py      :     0.014156


                     *******************************
                     * LOEWDIN POPULATION ANALYSIS *
                     *******************************

----------------------
LOEWDIN ATOMIC CHARGES
----------------------
   0 C :    0.086674
   1 C :   -0.030635
   2 C :    0.130102
   3 O :   -0.278163
   4 O :   -0.110170
   5 N :   -0.119474
   6 O :   -0.159988
   7 H :    0.016194
   8 H :    0.023010
   9 H :    0.034617
  10 H :    0.159297
  11 H :    0.065631
  12 H :    0.073741
  13 H :    0.109164

-------------------------------
LOEWDIN REDUCED ORBITAL CHARGES
-------------------------------
  0 C s       :     2.841294  s :     2.841294
      pz      :     0.954297  p :     2.922062
      px      :     1.033382
      py      :     0.934383
      dz2     :     0.041614  d :     0.149970
      dxz     :     0.010249
      dyz     :     0.039783
      dx2y2   :     0.019024
      dxy     :     0.039299
  1 C s       :     2.836803  s :     2.836803
      pz      :     0.977707  p :     3.046259
      px      :     1.033486
      py      :     1.035065
      dz2     :     0.045608  d :     0.147573
      dxz     :     0.014830
      dyz     :     0.038154
      dx2y2   :     0.014867
      dxy     :     0.034115
  2 C s       :     2.891861  s :     2.891861
      pz      :     0.922240  p :     2.725478
      px      :     0.926175
      py      :     0.877062
      dz2     :     0.080106  d :     0.252560
      dxz     :     0.075438
      dyz     :     0.046570
      dx2y2   :     0.024395
      dxy     :     0.026051
  3 O s       :     3.581701  s :     3.581701
      pz      :     1.505336  p :     4.670778
      px      :     1.673178
      py      :     1.492264
      dz2     :     0.008238  d :     0.025684
      dxz     :     0.004907
      dyz     :     0.009232
      dx2y2   :     0.001734
      dxy     :     0.001573
  4 O s       :     3.460726  s :     3.460726
      pz      :     1.606800  p :     4.628764
      px      :     1.534388
      py      :     1.487575
      dz2     :     0.005666  d :     0.020681
      dxz     :     0.006583
      dyz     :     0.001605
      dx2y2   :     0.003398
      dxy     :     0.003429
  5 N s       :     3.073531  s :     3.073531
      pz      :     1.307907  p :     4.005423
      px      :     1.298981
      py      :     1.398534
      dz2     :     0.012832  d :     0.040521
      dxz     :     0.007936
      dyz     :     0.006174
      dx2y2   :     0.008175
      dxy     :     0.005403
  6 O s       :     3.432617  s :     3.432617
      pz      :     1.416317  p :     4.704552
      px      :     1.638603
      py      :     1.649632
      dz2     :     0.002488  d :     0.022818
      dxz     :     0.006956
      dyz     :     0.006489
      dx2y2   :     0.004670
      dxy     :     0.002217
  7 H s       :     0.919109  s :     0.919109
      pz      :     0.037312  p :     0.064697
      px      :     0.012258
      py      :     0.015127
  8 H s       :     0.911408  s :     0.911408
      pz      :     0.010580  p :     0.065582
      px      :     0.034189
      py      :     0.020813
  9 H s       :     0.897041  s :     0.897041
      pz      :     0.028856  p :     0.068342
      px      :     0.013051
      py      :     0.026435
 10 H s       :     0.689984  s :     0.689984
      pz      :     0.029982  p :     0.150719
      px      :     0.043220
      py      :     0.077516
 11 H s       :     0.811805  s :     0.811805
      pz      :     0.034314  p :     0.122564
      px      :     0.060157
      py      :     0.028093
 12 H s       :     0.807059  s :     0.807059
      pz      :     0.024318  p :     0.119200
      px      :     0.036313
      py      :     0.058568
 13 H s       :     0.717367  s :     0.717367
      pz      :     0.062296  p :     0.173469
      px      :     0.071089
      py      :     0.040083


                      *****************************
                      * MAYER POPULATION ANALYSIS *
                      *****************************

  NA   - Mulliken gross atomic population
  ZA   - Total nuclear charge
  QA   - Mulliken gross atomic charge
  VA   - Mayer's total valence
  BVA  - Mayer's bonded valence
  FA   - Mayer's free valence

  ATOM       NA         ZA         QA         VA         BVA        FA
  0 C      5.7930     6.0000     0.2070     4.0411     4.0411     0.0000
  1 C      5.9295     6.0000     0.0705     3.8758     3.8758     0.0000
  2 C      5.8268     6.0000     0.1732     4.2828     4.2828    -0.0000
  3 O      8.3345     8.0000    -0.3345     2.1440     2.1440    -0.0000
  4 O      8.2629     8.0000    -0.2629     2.2008     2.2008    -0.0000
  5 N      7.2668     7.0000    -0.2668     3.0263     3.0263    -0.0000
  6 O      8.3705     8.0000    -0.3705     2.0540     2.0540     0.0000
  7 H      0.9865     1.0000     0.0135     1.0073     1.0073     0.0000
  8 H      0.9659     1.0000     0.0341     0.9846     0.9846     0.0000
  9 H      0.9702     1.0000     0.0298     0.9889     0.9889     0.0000
 10 H      0.7427     1.0000     0.2573     0.9704     0.9704    -0.0000
 11 H      0.8867     1.0000     0.1133     1.0090     1.0090    -0.0000
 12 H      0.8747     1.0000     0.1253     0.9941     0.9941    -0.0000
 13 H      0.7895     1.0000     0.2105     0.9905     0.9905     0.0000

  Mayer bond orders larger than 0.100000
B(  0-C ,  1-C ) :   1.0312 B(  0-C ,  6-O ) :   1.0379 B(  0-C ,  7-H ) :   0.9416 
B(  0-C ,  8-H ) :   0.9555 B(  1-C ,  2-C ) :   0.9049 B(  1-C ,  5-N ) :   1.0710 
B(  1-C ,  9-H ) :   0.8982 B(  2-C ,  3-O ) :   1.9915 B(  2-C ,  4-O ) :   1.2508 
B(  4-O , 10-H ) :   0.8969 B(  5-N , 11-H ) :   0.9562 B(  5-N , 12-H ) :   0.9615 
B(  6-O , 13-H ) :   0.9564 


------------------
HIRSHFELD ANALYSIS
------------------

Total integrated alpha density =     28.000019519
Total integrated beta density  =     28.000019519

  ATOM     CHARGE      SPIN    
   0 C    0.056766    0.000000
   1 C    0.031722    0.000000
   2 C    0.234950    0.000000
   3 O   -0.360512    0.000000
   4 O   -0.215187    0.000000
   5 N   -0.238888    0.000000
   6 O   -0.258257    0.000000
   7 H    0.028386    0.000000
   8 H    0.043382    0.000000
   9 H    0.040065    0.000000
  10 H    0.220265    0.000000
  11 H    0.110803    0.000000
  12 H    0.116433    0.000000
  13 H    0.190034    0.000000

  TOTAL  -0.000039    0.000000

-------
TIMINGS
-------

Total SCF time: 0 days 0 hours 0 min 15 sec 

Total time                  ....      15.768 sec
Sum of individual times     ....      14.824 sec  ( 94.0%)

Fock matrix formation       ....      13.091 sec  ( 83.0%)
  Split-RI-J                ....       2.043 sec  ( 15.6% of F)
  Chain of spheres X        ....       2.706 sec  ( 20.7% of F)
  XC integration            ....       2.982 sec  ( 22.8% of F)
    Basis function eval.    ....       0.210 sec  (  7.0% of XC)
    Density eval.           ....       0.168 sec  (  5.6% of XC)
    XC-Functional eval.     ....       0.117 sec  (  3.9% of XC)
    XC-Potential eval.      ....       0.094 sec  (  3.2% of XC)
Diagonalization             ....       0.234 sec  (  1.5%)
Density matrix formation    ....       0.004 sec  (  0.0%)
Population analysis         ....       0.175 sec  (  1.1%)
Initial guess               ....       0.177 sec  (  1.1%)
Orbital Transformation      ....       0.000 sec  (  0.0%)
Orbital Orthonormalization  ....       0.000 sec  (  0.0%)
DIIS solution               ....       0.189 sec  (  1.2%)
SOSCF solution              ....       0.074 sec  (  0.5%)
Grid generation             ....       0.881 sec  (  5.6%)

Maximum memory used throughout the entire SCF-calculation: 50.0 MB


-------------------------------------------------------------------------------
                          DFT DISPERSION CORRECTION                            
                                                                               
                              DFTD3 V3.1  Rev 1                                
                          USING Becke-Johnson damping                          
-------------------------------------------------------------------------------
The B3LYP functional is recognized
Active option DFTDOPT                   ...         4   

molecular C6(AA) [au] = 1570.633628 


            DFT-D V3
 parameters
 s6 scaling factor         :     1.0000 
 a1 scaling factor         :     0.3981 
 s8 scaling factor         :     1.9889 
 a2 scaling factor         :     4.4211 
 ad hoc parameters k1-k3   :    16.0000     1.3333    -4.0000 

 Edisp/kcal,au: -11.623357755273  -0.018522997653 
 E6   /kcal   :  -5.677281323 
 E8   /kcal   :  -5.946076432 
 % E8         :  51.156271342 

-------------------------   ----------------
Dispersion correction           -0.018522998
-------------------------   ----------------


-------------------------   --------------------
FINAL SINGLE POINT ENERGY      -398.453908499234
-------------------------   --------------------



           ************************************************************
           *        Program running with 16 parallel MPI-processes    *
           *              working on a common directory               *
           ************************************************************
------------------------------------------------------------------------------
                         ORCA SCF GRADIENT CALCULATION
------------------------------------------------------------------------------

 ... reading COSX grid (gridx3)
Gradient of the Kohn-Sham DFT energy:
Kohn-Sham wavefunction type      ... RKS
Hartree-Fock exchange scaling    ...    0.200
Number of operators              ...    1
Number of atoms                  ...   14
Basis set dimensions             ...  133
Integral neglect threshold       ... 2.5e-11
Integral primitive cutoff        ... 2.5e-12
SHARK Integral package           ... ON

Nuc. rep. gradient       (SHARK) ... done (  0.0 sec)
HCore & Overlap gradient (SHARK) ... done (  0.0 sec)
RI-J gradient            (SHARK) ... done (  0.2 sec)
COSX-gradient                    ... done (  0.4 sec)
Exchange-correlation gradient    ... done
Dispersion correction            ... done

------------------
CARTESIAN GRADIENT
------------------

   1   C   :    0.004818296    0.000922684    0.003310212
   2   C   :   -0.005894735   -0.018597871    0.019027265
   3   C   :   -0.068698456    0.068662810   -0.059824806
   4   O   :    0.013465988   -0.027634456    0.054066806
   5   O   :    0.018730744    0.017057598   -0.004259828
   6   N   :    0.006896854   -0.020039862    0.030363345
   7   O   :    0.012003309    0.022705140    0.016167776
   8   H   :    0.004450643   -0.001770511   -0.000321000
   9   H   :    0.002144386   -0.000047805   -0.007307073
  10   H   :   -0.003738716   -0.001164086   -0.009631227
  11   H   :    0.021008230   -0.037866720   -0.020852213
  12   H   :   -0.009645937   -0.008313001   -0.006681789
  13   H   :    0.013131739    0.009813729   -0.001581815
  14   H   :   -0.008720890   -0.003666069   -0.012302128

Difference to translation invariance:
           :   -0.0000485446    0.0000615812    0.0001735230

Difference to rotation invariance:
           :    0.0001484163    0.0003613215    0.0005744894

Norm of the cartesian gradient     ...    0.1543667249
RMS gradient                       ...    0.0238193028
MAX gradient                       ...    0.0686984565

-------
TIMINGS
-------

Total SCF gradient time            ...        1.358 sec

One electron gradient       ....       0.009 sec  (  0.7%)
RI-J Coulomb gradient       ....       0.234 sec  ( 17.2%)
COSX gradient               ....       0.408 sec  ( 30.1%)
XC gradient                 ....       0.183 sec  ( 13.5%)
CPCM gradient               ....       0.087 sec  (  6.4%)
   A-Matrix (El+Nuc)        ....       0.038 sec  (  2.8%)
   Potential                ....       0.049 sec  (  3.6%)

Maximum memory used throughout the entire SCFGRAD-calculation: 38.8 MB

                            ***************************************
                            *     ORCA property calculations      *
                            ***************************************

                                    ---------------------
                                    Active property flags
                                    ---------------------
   (+) Dipole Moment
   (+) Chemical Shifts
   (+) Nuclear properties (Hyperfine,Quadrupole)


------------------------------------------------------------------------------
                       ORCA ELECTRIC PROPERTIES CALCULATION
------------------------------------------------------------------------------

Dipole Moment Calculation                       ... on
Quadrupole Moment Calculation                   ... off
Polarizability Calculation                      ... off
GBWName                                         ... calc.gbw
Electron density                                ... calc.scfp
The origin for moment calculation is the CENTER OF MASS  = ( 0.717296, -0.422660  0.196144)

-------------
DIPOLE MOMENT
-------------
                                X             Y             Z
Electronic contribution:      3.72867      -1.88313       0.52590
Nuclear contribution   :     -5.00511       2.77799      -1.60559
                        -----------------------------------------
Total Dipole Moment    :     -1.27645       0.89486      -1.07969
                        -----------------------------------------
Magnitude (a.u.)       :      1.89627
Magnitude (Debye)      :      4.81993



--------------------
Rotational spectrum 
--------------------
 
Rotational constants in cm-1:     0.117169     0.077542     0.064017 
Rotational constants in MHz :  3512.634665  2324.657793  1919.190802 

 Dipole components along the rotational axes: 
x,y,z [a.u.] :    -1.496925     1.162911    -0.051774 
x,y,z [Debye]:    -3.804881     2.955886    -0.131599 

 


           ************************************************************
           *        Program running with 16 parallel MPI-processes    *
           *              working on a common directory               *
           ************************************************************
------------------------------------------------------------------------------
                                ORCA EPR/NMR CALCULATION
------------------------------------------------------------------------------

GBWName                      ... calc.gbw
Electron density             ... calc.scfp
Spin density                 ... calc.scfr
Treatment of gauge           ... GIAO (approximations 1/2el = 0,0)
Details of the CP(SCF) procedure:
       Solver   = POPLE   
       MaxIter  =    64   
       Tolerance=    1.000e-04
       COSX Grid=     1   
       Op-0     =   0- 27 =>  28-132
Multiplicity                 ... 1
g-tensor                     ... 0
NMR chemical shifts          ... 1
NMR spin-spin couplings      ... 0
NMR spectrum                 ... 0
Number of nuclei for epr/nmr ... 14
   Nucleus:   0C 
       Hyperfine : Isotope=   13 I=   0.500 P= 134.188
       Quadrupole: Isotope=   13 I=   0.500 Q=   0.000
       Spin-Orbit: Zeff=   3.600
       Nuclear Spin-Spin: Gn=   0.000
       EPRNMR Input: 
       rho(0)=N f(grad)=N a(iso)=N a(dip)=N a(orb)=N sigma(nmr)=Y spin-spin(nmr)=all-N,DSO-N,PSO-N,FC-N,SD-N
   Nucleus:   1C 
       Hyperfine : Isotope=   13 I=   0.500 P= 134.188
       Quadrupole: Isotope=   13 I=   0.500 Q=   0.000
       Spin-Orbit: Zeff=   3.600
       Nuclear Spin-Spin: Gn=   0.000
       EPRNMR Input: 
       rho(0)=N f(grad)=N a(iso)=N a(dip)=N a(orb)=N sigma(nmr)=Y spin-spin(nmr)=all-N,DSO-N,PSO-N,FC-N,SD-N
   Nucleus:   2C 
       Hyperfine : Isotope=   13 I=   0.500 P= 134.188
       Quadrupole: Isotope=   13 I=   0.500 Q=   0.000
       Spin-Orbit: Zeff=   3.600
       Nuclear Spin-Spin: Gn=   0.000
       EPRNMR Input: 
       rho(0)=N f(grad)=N a(iso)=N a(dip)=N a(orb)=N sigma(nmr)=Y spin-spin(nmr)=all-N,DSO-N,PSO-N,FC-N,SD-N
   Nucleus:   3O 
       Hyperfine : Isotope=   17 I=   2.500 P= -72.357
       Quadrupole: Isotope=   17 I=   2.500 Q=  -0.026
       Spin-Orbit: Zeff=   5.600
       Nuclear Spin-Spin: Gn=   0.000
       EPRNMR Input: 
       rho(0)=N f(grad)=N a(iso)=N a(dip)=N a(orb)=N sigma(nmr)=Y spin-spin(nmr)=all-N,DSO-N,PSO-N,FC-N,SD-N
   Nucleus:   4O 
       Hyperfine : Isotope=   17 I=   2.500 P= -72.357
       Quadrupole: Isotope=   17 I=   2.500 Q=  -0.026
       Spin-Orbit: Zeff=   5.600
       Nuclear Spin-Spin: Gn=   0.000
       EPRNMR Input: 
       rho(0)=N f(grad)=N a(iso)=N a(dip)=N a(orb)=N sigma(nmr)=Y spin-spin(nmr)=all-N,DSO-N,PSO-N,FC-N,SD-N
   Nucleus:   5N 
       Hyperfine : Isotope=   14 I=   1.000 P=  38.571
       Quadrupole: Isotope=   14 I=   1.000 Q=   0.020
       Spin-Orbit: Zeff=   4.550
       Nuclear Spin-Spin: Gn=   0.000
       EPRNMR Input: 
       rho(0)=N f(grad)=N a(iso)=N a(dip)=N a(orb)=N sigma(nmr)=Y spin-spin(nmr)=all-N,DSO-N,PSO-N,FC-N,SD-N
   Nucleus:   6O 
       Hyperfine : Isotope=   17 I=   2.500 P= -72.357
       Quadrupole: Isotope=   17 I=   2.500 Q=  -0.026
       Spin-Orbit: Zeff=   5.600
       Nuclear Spin-Spin: Gn=   0.000
       EPRNMR Input: 
       rho(0)=N f(grad)=N a(iso)=N a(dip)=N a(orb)=N sigma(nmr)=Y spin-spin(nmr)=all-N,DSO-N,PSO-N,FC-N,SD-N
   Nucleus:   7H 
       Hyperfine : Isotope=    1 I=   0.500 P= 533.552
       Quadrupole: Isotope=    2 I=   1.000 Q=   0.003
       Spin-Orbit: Zeff=   1.000
       Nuclear Spin-Spin: Gn=   0.000
       EPRNMR Input: 
       rho(0)=N f(grad)=N a(iso)=N a(dip)=N a(orb)=N sigma(nmr)=Y spin-spin(nmr)=all-N,DSO-N,PSO-N,FC-N,SD-N
   Nucleus:   8H 
       Hyperfine : Isotope=    1 I=   0.500 P= 533.552
       Quadrupole: Isotope=    2 I=   1.000 Q=   0.003
       Spin-Orbit: Zeff=   1.000
       Nuclear Spin-Spin: Gn=   0.000
       EPRNMR Input: 
       rho(0)=N f(grad)=N a(iso)=N a(dip)=N a(orb)=N sigma(nmr)=Y spin-spin(nmr)=all-N,DSO-N,PSO-N,FC-N,SD-N
   Nucleus:   9H 
       Hyperfine : Isotope=    1 I=   0.500 P= 533.552
       Quadrupole: Isotope=    2 I=   1.000 Q=   0.003
       Spin-Orbit: Zeff=   1.000
       Nuclear Spin-Spin: Gn=   0.000
       EPRNMR Input: 
       rho(0)=N f(grad)=N a(iso)=N a(dip)=N a(orb)=N sigma(nmr)=Y spin-spin(nmr)=all-N,DSO-N,PSO-N,FC-N,SD-N
   Nucleus:  10H 
       Hyperfine : Isotope=    1 I=   0.500 P= 533.552
       Quadrupole: Isotope=    2 I=   1.000 Q=   0.003
       Spin-Orbit: Zeff=   1.000
       Nuclear Spin-Spin: Gn=   0.000
       EPRNMR Input: 
       rho(0)=N f(grad)=N a(iso)=N a(dip)=N a(orb)=N sigma(nmr)=Y spin-spin(nmr)=all-N,DSO-N,PSO-N,FC-N,SD-N
   Nucleus:  11H 
       Hyperfine : Isotope=    1 I=   0.500 P= 533.552
       Quadrupole: Isotope=    2 I=   1.000 Q=   0.003
       Spin-Orbit: Zeff=   1.000
       Nuclear Spin-Spin: Gn=   0.000
       EPRNMR Input: 
       rho(0)=N f(grad)=N a(iso)=N a(dip)=N a(orb)=N sigma(nmr)=Y spin-spin(nmr)=all-N,DSO-N,PSO-N,FC-N,SD-N
   Nucleus:  12H 
       Hyperfine : Isotope=    1 I=   0.500 P= 533.552
       Quadrupole: Isotope=    2 I=   1.000 Q=   0.003
       Spin-Orbit: Zeff=   1.000
       Nuclear Spin-Spin: Gn=   0.000
       EPRNMR Input: 
       rho(0)=N f(grad)=N a(iso)=N a(dip)=N a(orb)=N sigma(nmr)=Y spin-spin(nmr)=all-N,DSO-N,PSO-N,FC-N,SD-N
   Nucleus:  13H 
       Hyperfine : Isotope=    1 I=   0.500 P= 533.552
       Quadrupole: Isotope=    2 I=   1.000 Q=   0.003
       Spin-Orbit: Zeff=   1.000
       Nuclear Spin-Spin: Gn=   0.000
       EPRNMR Input: 
       rho(0)=N f(grad)=N a(iso)=N a(dip)=N a(orb)=N sigma(nmr)=Y spin-spin(nmr)=all-N,DSO-N,PSO-N,FC-N,SD-N
Forming RHS of the CP-SCF equations         ... 
Calculating right hand sides for GIAO treatment        ... 
  Entering RightHandSide GIAO. ScalHFX=    0.2000 NeedHFX=1
     -> 1-electron GIAO integrals will be done analytically
     -> RIJCOSX used in SCF. Same chosen for GIAO calculation.
     Making grid for GIAO integrations   ...

GRID GIAO
---------

General Integration Accuracy     IntAcc      ... 4.388
Radial Grid Type                 RadialGrid  ... OptM3 with GC (2021)
Angular Grid (max. ang.)         AngularGrid ... 4 (Lebedev-302)
Angular grid pruning method      GridPruning ... 4 (adaptive)
Weight generation scheme         WeightScheme... Becke
Basis function cutoff            BFCut       ... 1.0000e-11
Integration weight cutoff        WCut        ... 1.0000e-14
Angular grids for H and He will be reduced by one unit
Partially contracted basis set               ... off
Rotationally invariant grid construction     ... off

Total number of grid points                  ...    64969
Total number of batches                      ...     1023
Average number of points per batch           ...       63
Average number of grid points per atom       ...     4641

  One-electron GIAO integrals (SHARK)     ... done
  Calculating G(B)[P]                     ... (RI-J: SHARK-ok) (COSX-ok) (add-J+K:ok) => dG/dB done
  DFT XC-terms                            ... done
  Forming the GIAO-CPCM matrix            ... done (epsilon= 80.40 f(epsilon)= 0.987562)
  Extracting occupied and virtual blocks  ... 
  Operator  0  NO=  28 NV= 105 
  Transforming and RHS contribution       ... done
  Adding eps_i * S(B)_ai terms            ... done
  Projecting overlap derivatives          ... done
  Building G[dS/dB_ij] (COSX)             ... done
  Transforming to MO basis                ... done
  Summing G[dS/dB_ij] into RHS contribs.  ... done

  GIAO profiling information: 
    Total GIAO time               ...       1.6 sec
       GIAO 1-electron integrals  ...       0.0 sec (  0.3%)
       GIAO G(dS/dB) terms        ...       0.2 sec ( 15.1%)
       GIAO RI-J                  ...       0.2 sec ( 11.5%)
       GIAO COSX                  ...       0.2 sec ( 15.2%)
       GIAO XC-terms              ...       0.3 sec ( 17.4%)
       GIAO Solvent terms         ...       0.2 sec ( 13.5%)
       Right hand side assembly   ...       0.0 sec (  0.2%)

  GIAO right hand side done


------------------------------------------------------------------------------
                           ORCA CP-SCF CALCULATION
------------------------------------------------------------------------------

Input orbitals are from        ... calc.gbw
Input Perturbation             ... calc.pin.tmp
Wavefunction output            ... calc.pout.tmp
Perturbation mode              ... Imaginary perturbation
Solver                         ... POPLE
Max. number of iterations      ... 64
Convergence tolerance          ... 1.000e-04
Integral handling              ... Direct
DFT GridXC                     ... 1
COSX GridX                     ... 1
COSX IntAccX                   ... 3.067
COSX Algorithm                 ... Auto
Number of perturbations        ... 3
Number of operators            ... 1
Orbital ranges used for CP-SCF:
 Operator 0:  Orbitals   0... 27  to  28...132
Variables per perturbation     ... 2940
DFT calculation                         ... on
XC functional terms                     ... off
Hybrid DFT                              ... on
   Exchange mixing (SCF)                ...  0.200
   Exchange mixing (CP-SCF)             ...  0.200
   GGA exch. scaling(SCF)               ...  0.720
   GGA exch. scaling (CP-SCF)           ...  0.720
   GGA corr. scaling (SCF)              ...  0.810
   GGA corr. scaling (CP-SCF)           ...  0.810

CP-SCF GRID
-----------

General Integration Accuracy     IntAcc      ... 3.467
Radial Grid Type                 RadialGrid  ... OptM3 with GC (2021)
Angular Grid (max. ang.)         AngularGrid ... 1 (Lebedev-50)
Angular grid pruning method      GridPruning ... 4 (adaptive)
Weight generation scheme         WeightScheme... Becke
Basis function cutoff            BFCut       ... 1.0000e-11
Integration weight cutoff        WCut        ... 1.0000e-14
Angular grids for H and He will be reduced by one unit
Partially contracted basis set               ... off
Rotationally invariant grid construction     ... off

Total number of grid points                  ...     9422
Total number of batches                      ...      153
Average number of points per batch           ...       61
Average number of grid points per atom       ...      673

CP-SCF GRIDX
------------

General Integration Accuracy     IntAcc      ... 3.067
Radial Grid Type                 RadialGrid  ... OptM3 with GC (2021)
Angular Grid (max. ang.)         AngularGrid ... 1 (Lebedev-50)
Angular grid pruning method      GridPruning ... 4 (adaptive)
Weight generation scheme         WeightScheme... Becke
Basis function cutoff            BFCut       ... 1.0000e-11
Integration weight cutoff        WCut        ... 1.0000e-14
Angular grids for H and He will be reduced by one unit
Partially contracted basis set               ... on
Rotationally invariant grid construction     ... off

Total number of grid points                  ...     4343
Total number of batches                      ...       75
Average number of points per batch           ...       57
Average number of grid points per atom       ...      310

Memory available               ... 1011.7 MB
Memory needed per perturbation ...   0.7 MB
Perturbations treated per batch... 3
Number of batches              ... 1
     CP-SCF ITERATION   0:   4.1213e-01 (   0.2 sec   0/  3 done)
     CP-SCF ITERATION   1:   2.4650e-02 (   0.2 sec   0/  3 done)
     CP-SCF ITERATION   2:   2.1178e-03 (   0.2 sec   0/  3 done)
     CP-SCF ITERATION   3:   1.5814e-04 (   0.2 sec   0/  3 done)
     CP-SCF ITERATION   4:   1.0376e-05 (   0.2 sec   3/  3 done)
                    *** THE CP-SCF HAS CONVERGED ***

Forming final perturbed densities           ... done
Transforming perturbed density to AO basis  ... done

Magnetic field perturbation calculated in  2.695 sec

---------------
CHEMICAL SHIFTS
---------------

Note: using conversion factor for au to ppm alpha^2/2 =   26.625677252 
GIAO: Analytic para- and diamagnetic shielding integrals (SHARK)       ...done
 --------------
 Nucleus   0C :
 --------------

Diamagnetic contribution to the shielding tensor (ppm) : 
           245.753          6.021        -4.096
             0.291        245.834         6.385
            -0.754          4.910       240.898

Paramagnetic contribution to the shielding tensor (ppm): 
          -135.189          3.635        -4.061
            11.047       -117.117        -3.993
            -2.936          9.394      -115.945

Total shielding tensor (ppm): 
           110.564          9.656        -8.158
            11.339        128.717         2.392
            -3.690         14.304       124.954


 Diagonalized sT*s matrix:
 
 sDSO           239.510          242.994          249.982  iso=     244.162
 sPSO          -137.324         -117.395         -113.533  iso=    -122.750
        ---------------  ---------------  ---------------
 Total          102.186          125.599          136.449  iso=     121.411

 --------------
 Nucleus   1C :
 --------------

Diamagnetic contribution to the shielding tensor (ppm) : 
           254.179         -3.965         2.872
            -1.829        249.356        -5.106
             1.151         -5.148       255.125

Paramagnetic contribution to the shielding tensor (ppm): 
          -123.435         -6.807         8.934
            -4.788       -106.400         5.806
             1.484         -3.764      -123.902

Total shielding tensor (ppm): 
           130.744        -10.772        11.807
            -6.617        142.955         0.700
             2.635         -8.912       131.223


 Diagonalized sT*s matrix:
 
 sDSO           252.688          248.948          257.024  iso=     252.887
 sPSO          -129.709         -117.161         -106.867  iso=    -117.912
        ---------------  ---------------  ---------------
 Total          122.979          131.787          150.156  iso=     134.974

 --------------
 Nucleus   2C :
 --------------

Diamagnetic contribution to the shielding tensor (ppm) : 
           252.278        -13.363        -7.652
           -13.245        240.914       -11.470
             0.567         -6.977       266.328

Paramagnetic contribution to the shielding tensor (ppm): 
          -278.883         67.188        58.691
            58.584       -204.851        17.263
            89.858        -21.521      -294.196

Total shielding tensor (ppm): 
           -26.606         53.825        51.040
            45.340         36.063         5.792
            90.426        -28.498       -27.868


 Diagonalized sT*s matrix:
 
 sDSO           267.849          230.726          260.946  iso=     253.173
 sPSO          -256.344         -159.206         -362.381  iso=    -259.310
        ---------------  ---------------  ---------------
 Total           11.505           71.520         -101.435  iso=      -6.137

 --------------
 Nucleus   3O :
 --------------

Diamagnetic contribution to the shielding tensor (ppm) : 
           390.193         -4.577        -1.789
            -8.920        389.997       -12.766
             8.024         -7.176       418.635

Paramagnetic contribution to the shielding tensor (ppm): 
          -507.126        251.439        82.049
           243.930       -331.726       186.307
           138.193        174.143      -722.254

Total shielding tensor (ppm): 
          -116.933        246.862        80.260
           235.010         58.271       173.541
           146.216        166.967      -303.619


 Diagonalized sT*s matrix:
 
 sDSO           392.844          390.515          415.466  iso=     399.608
 sPSO          -567.371         -229.850         -763.885  iso=    -520.369
        ---------------  ---------------  ---------------
 Total         -174.527          160.665         -348.419  iso=    -120.760

 --------------
 Nucleus   4O :
 --------------

Diamagnetic contribution to the shielding tensor (ppm) : 
           389.880        -14.460       -14.782
           -14.804        385.788         1.331
           -25.016         -7.220       390.955

Paramagnetic contribution to the shielding tensor (ppm): 
          -263.623        117.014       -22.473
            88.935       -305.218        19.307
           -81.061        154.210      -235.167

Total shielding tensor (ppm): 
           126.257        102.554       -37.255
            74.132         80.570        20.638
          -106.077        146.989       155.788


 Diagonalized sT*s matrix:
 
 sDSO           383.379          378.011          405.234  iso=     388.875
 sPSO          -398.001         -184.292         -221.716  iso=    -268.003
        ---------------  ---------------  ---------------
 Total          -14.621          193.719          183.518  iso=     120.872

 --------------
 Nucleus   5N :
 --------------

Diamagnetic contribution to the shielding tensor (ppm) : 
           311.638         10.170         6.029
             6.857        306.524        -7.981
             5.656        -22.741       322.798

Paramagnetic contribution to the shielding tensor (ppm): 
           -59.400         12.461         3.127
            19.546        -74.334       -24.433
             3.639         -6.817       -88.108

Total shielding tensor (ppm): 
[...]
     10      -0.014795   0.001947   0.012840   0.008366  -0.030357   0.012359
     11       0.002408   0.001163  -0.029553  -0.062170   0.055510  -0.028203
     12       0.026513   0.005312  -0.000920   0.004882  -0.006442   0.007826
     13       0.015889   0.003137  -0.019627  -0.059904   0.008952  -0.004321
     14      -0.051201  -0.008454   0.019056   0.026821   0.004290  -0.005761
     15      -0.011935  -0.034091   0.030208   0.012710  -0.001786  -0.059153
     16      -0.029387   0.000585  -0.002214  -0.004768  -0.049370  -0.050654
     17       0.071509  -0.034002   0.108821  -0.014855   0.030579  -0.007128
     18      -0.011554  -0.020321  -0.005923  -0.001807  -0.040072   0.016695
     19       0.074199   0.029458   0.017256   0.002821   0.041539  -0.021650
     20       0.077899   0.033046  -0.005205   0.004959  -0.021304   0.002018
     21       0.005454  -0.108742  -0.101648  -0.003161   0.083745  -0.185696
     22      -0.045761  -0.388678  -0.018247  -0.010491   0.386873  -0.248617
     23      -0.083905  -0.187149   0.077986  -0.010389   0.284112  -0.104542
     24      -0.115289   0.266972   0.099009   0.090640   0.086735  -0.207361
     25      -0.323627   0.391083   0.144157   0.103429  -0.007475  -0.190069
     26      -0.236334   0.202039  -0.015540   0.002312  -0.241736   0.086849
     27       0.586458   0.048119  -0.491395   0.474937   0.179214  -0.299519
     28       0.243803   0.171251   0.374563  -0.226997  -0.330155  -0.329702
     29      -0.316786  -0.105050  -0.439299   0.175626   0.348562   0.341064
     30      -0.185865  -0.017160   0.199213   0.433597  -0.061579   0.057660
     31      -0.133632  -0.014967   0.118618   0.241684  -0.027900   0.029032
     32       0.309783   0.048076  -0.246159  -0.616566   0.060192  -0.037372
     33       0.030641   0.070876  -0.070145  -0.007765   0.042262   0.099049
     34       0.010847   0.147640  -0.160902  -0.029979   0.031074   0.151227
     35       0.003969  -0.260630   0.350957   0.023851  -0.067709  -0.337070
     36       0.047808   0.074508   0.029532  -0.025593  -0.001755   0.078326
     37      -0.051034  -0.021959  -0.041523   0.013266  -0.021938  -0.056193
     38       0.221787   0.215244  -0.050729  -0.046945   0.192199   0.461038
     39      -0.051095   0.175972   0.091294   0.014844   0.203130  -0.080781
     40       0.139315  -0.495320  -0.161144  -0.036102  -0.416824   0.166085
     41       0.141725  -0.238161  -0.128881  -0.017547  -0.331080   0.125471
                 30         31         32         33         34         35    
      0       0.037182  -0.140228  -0.009743  -0.022693  -0.006610   0.045951
      1       0.039903  -0.082067   0.055068  -0.048289  -0.007847  -0.005289
      2      -0.003311  -0.032338   0.079240   0.012912  -0.006171  -0.045867
      3      -0.120949   0.020676  -0.008322  -0.123918  -0.017310   0.000034
      4       0.083211   0.044466  -0.015717   0.126714   0.016783   0.003240
      5      -0.126726  -0.003626  -0.001778  -0.083936   0.019970   0.003913
      6       0.046232  -0.009471  -0.002134   0.283280   0.023539  -0.001063
      7       0.013320   0.014329   0.007712  -0.350277  -0.023048   0.000684
      8      -0.083796  -0.041749  -0.003913   0.351940   0.013411  -0.000189
      9       0.008623   0.008456   0.001517  -0.084527  -0.005849  -0.000171
     10      -0.029814  -0.012955  -0.002635   0.153989   0.009043  -0.000252
     11       0.055254   0.026725   0.003194  -0.235885  -0.011539   0.000308
     12      -0.008146  -0.000673   0.000932  -0.029803  -0.002457  -0.000168
     13       0.007365  -0.000137  -0.001931   0.052581   0.003609   0.000502
     14       0.007654   0.004546   0.000199  -0.026319  -0.000516   0.000090
     15       0.039254  -0.006137   0.004615   0.008490  -0.014438  -0.000432
     16      -0.021992  -0.016831   0.004973  -0.024957   0.046268  -0.000131
     17       0.055030   0.009536  -0.004330   0.038100  -0.081310   0.000462
     18       0.022995   0.047118  -0.014793   0.003346   0.001508   0.000194
     19      -0.023776  -0.025306   0.006937   0.005430  -0.001368  -0.001669
     20       0.022229   0.006131   0.006470   0.003449   0.002188  -0.000732
     21      -0.460286   0.497155   0.403860   0.104926   0.037512   0.062524
     22      -0.593457   0.058172  -0.489567  -0.054523   0.012188  -0.296895
     23      -0.269753  -0.031392  -0.220373   0.005713  -0.000717   0.625638
     24       0.074081   0.309457   0.002382   0.170132   0.018724  -0.594408
     25       0.155874   0.623764  -0.071359   0.244172   0.040392   0.386788
     26       0.219202   0.001512  -0.721080  -0.095043  -0.004370  -0.068256
     27       0.143049   0.058286  -0.047207   0.126942   0.027703   0.002214
     28      -0.191995   0.004270  -0.025371  -0.125309  -0.022640  -0.044518
     29       0.134375   0.035908   0.011257   0.163657   0.056912  -0.050371
     30      -0.063116   0.007861   0.009836  -0.264295  -0.017701   0.004755
     31      -0.028128   0.005888   0.003464  -0.114347  -0.007927  -0.008583
     32       0.048550  -0.014679  -0.013561   0.411373   0.025907  -0.000953
     33      -0.034842   0.030931  -0.015105   0.056082  -0.208737   0.002018
     34      -0.110913   0.056983  -0.005157   0.197104  -0.555508   0.000282
     35       0.214446  -0.075825   0.033512  -0.094875   0.364009  -0.001412
     36      -0.033767  -0.022856   0.003599  -0.181822   0.456185  -0.000963
     37      -0.005546   0.001462   0.001292   0.060514  -0.150083  -0.000496
     38      -0.086484   0.047884  -0.031704  -0.168347   0.512852  -0.001239
     39      -0.095895  -0.129565   0.015106   0.003082  -0.000598  -0.003123
     40       0.187743   0.370078  -0.080829   0.013627   0.029694   0.004030
     41       0.171651   0.236438  -0.030808   0.007758   0.007654  -0.002353
                 36         37         38         39         40         41    
      0      -0.000415  -0.004210  -0.053600  -0.000179   0.000356  -0.001723
      1       0.001125   0.001183   0.057463  -0.000486  -0.000261   0.002819
      2      -0.001526   0.003866  -0.059377   0.000235  -0.000031  -0.000299
      3      -0.000493   0.001511  -0.000980  -0.000626  -0.000499   0.000138
      4       0.001123   0.058918   0.000866   0.000241  -0.000167   0.000175
      5       0.001277   0.057993  -0.001485   0.003033  -0.000051   0.000016
      6       0.000753   0.000853   0.000341   0.000507   0.000054  -0.000174
      7      -0.000367   0.000131   0.000382  -0.000390  -0.000535   0.000059
      8      -0.000472   0.000852  -0.000801  -0.000148   0.000146  -0.000094
      9      -0.000491   0.000003  -0.000203  -0.000053  -0.000007   0.000110
     10      -0.000351  -0.000257  -0.000235   0.000050  -0.000021  -0.000146
     11       0.001665  -0.000238   0.000251  -0.000029  -0.000056  -0.000001
     12       0.030101  -0.000250  -0.000603   0.000037  -0.000030   0.000078
     13      -0.054806   0.001027   0.000957  -0.000057  -0.000016  -0.000073
     14      -0.006916  -0.000074   0.000163   0.000020  -0.000003  -0.000081
     15      -0.000237  -0.001140  -0.000017  -0.007608  -0.073168  -0.000144
     16      -0.000046  -0.000973  -0.000254   0.045340  -0.038174   0.000156
     17      -0.000385   0.001088   0.000465  -0.031801  -0.020451  -0.000087
     18      -0.000033  -0.000261   0.001310   0.000060   0.000086  -0.044686
     19      -0.000171  -0.000405  -0.001395  -0.000051   0.000115   0.003762
     20       0.000130  -0.000510   0.001422   0.000189   0.000352  -0.044805
     21       0.001981  -0.002333   0.056839   0.000724   0.000532   0.001411
     22      -0.007696   0.018963  -0.308434  -0.000427  -0.000003  -0.005224
     23       0.016508  -0.039612   0.639526   0.000027  -0.001303   0.016130
     24       0.004764   0.043122   0.583230   0.001626   0.000533   0.009281
     25      -0.002977  -0.028102  -0.370846   0.000758   0.001601  -0.001675
     26      -0.000173   0.004470   0.066551  -0.000064  -0.000728   0.006336
     27      -0.001402  -0.020592   0.001671  -0.001583   0.000458   0.000962
     28      -0.009519  -0.685912   0.002179  -0.000528   0.004831   0.002495
     29      -0.010562  -0.719181   0.004982   0.010781   0.009235   0.002684
     30      -0.469578   0.006903   0.008486  -0.000354   0.000340  -0.000313
     31       0.875660  -0.012456  -0.015639   0.000323  -0.000713   0.000511
     32       0.090405  -0.001226  -0.001917   0.000525  -0.000034  -0.000025
     33      -0.000100   0.009179  -0.000564   0.535251   0.712949   0.003519
     34       0.000197   0.002049  -0.001977   0.039395   0.027575  -0.000353
     35       0.000312   0.005484   0.003539   0.276451   0.357094   0.001956
     36       0.000786   0.007002   0.001655  -0.425773   0.304212  -0.000141
     37       0.000472  -0.003970   0.000171  -0.661468   0.506572   0.000495
     38      -0.000669  -0.000988   0.000555   0.115938  -0.083137   0.000630
     39      -0.000757   0.002629  -0.012782  -0.001317  -0.002003   0.714511
     40       0.000275  -0.000553   0.009163   0.000387   0.000849  -0.091031
     41      -0.000599   0.001738  -0.014088  -0.001796  -0.002354   0.690440


-----------
IR SPECTRUM
-----------

 Mode   freq       eps      Int      T**2         TX        TY        TZ
       cm**-1   L/(mol*cm) km/mol    a.u.
----------------------------------------------------------------------------
  6:    105.85   0.001019    5.15  0.003004  (-0.006366 -0.035772 -0.041030)
  7:    130.44   0.005055   25.54  0.012093  (-0.050716 -0.097408  0.005726)
  8:    204.55   0.016335   82.55  0.024921  (-0.056179 -0.141409 -0.042047)
  9:    250.58   0.006346   32.07  0.007904  ( 0.005554  0.061178  0.064265)
 10:    309.77   0.004726   23.88  0.004761  ( 0.054639  0.011189 -0.040626)
 11:    352.25   0.038766  195.91  0.034343  ( 0.114811  0.025378 -0.143238)
 12:    381.78   0.003124   15.79  0.002554  (-0.021447 -0.011953  0.044168)
 13:    467.72   0.024605  124.34  0.016417  ( 0.073366 -0.069732 -0.078559)
 14:    538.35   0.004349   21.98  0.002521  (-0.038189 -0.018531  0.026819)
 15:    597.02   0.003921   19.82  0.002050  ( 0.044213 -0.006960 -0.006802)
 16:    631.41   0.009730   49.17  0.004809  ( 0.042700 -0.026802 -0.047615)
 17:    757.67   0.018965   95.84  0.007811  ( 0.082685  0.029429  0.010402)
 18:    807.35   0.018740   94.71  0.007244  (-0.069256 -0.025689 -0.042276)
 19:    880.88   0.005966   30.15  0.002114  ( 0.005378  0.028807  0.035423)
 20:    942.56   0.000660    3.34  0.000219  ( 0.012419 -0.005987 -0.005336)
 21:   1007.21   0.015564   78.66  0.004822  (-0.021209  0.038359  0.053861)
 22:   1098.92   0.022390  113.15  0.006358  (-0.024504 -0.065080 -0.039017)
 23:   1164.36   0.086180  435.52  0.023097  ( 0.097178 -0.020044 -0.115117)
 24:   1180.16   0.013721   69.34  0.003628  (-0.056680 -0.005494  0.019633)
 25:   1194.75   0.007587   38.34  0.001982  ( 0.000440 -0.041258 -0.016708)
 26:   1246.90   0.002706   13.67  0.000677  (-0.009993 -0.008726 -0.022387)
 27:   1291.31   0.000821    4.15  0.000198  ( 0.000886  0.014057  0.000210)
 28:   1347.73   0.032999  166.76  0.007641  ( 0.003839 -0.012680 -0.086403)
 29:   1362.56   0.011726   59.26  0.002686  (-0.036708  0.019464  0.030972)
 30:   1386.79   0.017029   86.06  0.003832  ( 0.001232  0.033972 -0.051734)
 31:   1399.30   0.007813   39.49  0.001742  (-0.017860  0.021261 -0.031168)
 32:   1456.24   0.002365   11.95  0.000507  ( 0.020621  0.008854 -0.001794)
 33:   1565.35   0.038049  192.28  0.007585  ( 0.023486 -0.040531  0.073423)
 34:   1624.24   0.017170   86.77  0.003299  ( 0.022464 -0.034311  0.040212)
 35:   3031.58   0.009106   46.02  0.000937  ( 0.019161 -0.008151 -0.022444)
 36:   3084.49   0.045352  229.19  0.004588  (-0.037815  0.050976  0.023662)
 37:   3100.23   0.011458   57.90  0.001153  ( 0.001791  0.010242  0.032330)
 38:   3114.95   0.006445   32.57  0.000646  (-0.011615  0.013603 -0.018049)
 39:   3380.32   0.002180   11.02  0.000201  ( 0.001819 -0.011723  0.007777)
 40:   3501.78   0.006405   32.37  0.000571  ( 0.019048  0.013528  0.004996)
 41:   3648.07   0.027690  139.94  0.002369  ( 0.033493  0.006493  0.034709)

* The epsilon (eps) is given for a Dirac delta lineshape.
** The dipole moment derivative (T) already includes vibrational overlap.

The first frequency considered to be a vibration is 6
The total number of vibrations considered is 36


--------------------------
THERMOCHEMISTRY AT 298.15K
--------------------------

Temperature         ... 298.15 K
Pressure            ... 1.00 atm
Total Mass          ... 105.09 AMU

Throughout the following assumptions are being made:
  (1) The electronic state is orbitally nondegenerate
  (2) There are no thermally accessible electronically excited states
  (3) Hindered rotations indicated by low frequency modes are not
      treated as such but are treated as vibrations and this may
      cause some error
  (4) All equations used are the standard statistical mechanics
      equations for an ideal gas
  (5) All vibrations are strictly harmonic

freq.     105.85  E(vib)   ...       0.45 
freq.     130.44  E(vib)   ...       0.43 
freq.     204.55  E(vib)   ...       0.35 
freq.     250.58  E(vib)   ...       0.30 
freq.     309.77  E(vib)   ...       0.26 
freq.     352.25  E(vib)   ...       0.23 
freq.     381.78  E(vib)   ...       0.21 
freq.     467.72  E(vib)   ...       0.16 
freq.     538.35  E(vib)   ...       0.12 
freq.     597.02  E(vib)   ...       0.10 
freq.     631.41  E(vib)   ...       0.09 
freq.     757.67  E(vib)   ...       0.06 
freq.     807.35  E(vib)   ...       0.05 
freq.     880.88  E(vib)   ...       0.04 
freq.     942.56  E(vib)   ...       0.03 
freq.    1007.21  E(vib)   ...       0.02 
freq.    1098.92  E(vib)   ...       0.02 
freq.    1164.36  E(vib)   ...       0.01 
freq.    1180.16  E(vib)   ...       0.01 
freq.    1194.75  E(vib)   ...       0.01 
freq.    1246.90  E(vib)   ...       0.01 
freq.    1291.31  E(vib)   ...       0.01 
freq.    1347.73  E(vib)   ...       0.01 
freq.    1362.56  E(vib)   ...       0.01 
freq.    1386.79  E(vib)   ...       0.00 
freq.    1399.30  E(vib)   ...       0.00 
freq.    1456.24  E(vib)   ...       0.00 
freq.    1565.35  E(vib)   ...       0.00 
freq.    1624.24  E(vib)   ...       0.00 
freq.    3031.58  E(vib)   ...       0.00 
freq.    3084.49  E(vib)   ...       0.00 
freq.    3100.23  E(vib)   ...       0.00 
freq.    3114.95  E(vib)   ...       0.00 
freq.    3380.32  E(vib)   ...       0.00 
freq.    3501.78  E(vib)   ...       0.00 
freq.    3648.07  E(vib)   ...       0.00 

------------
INNER ENERGY
------------

The inner energy is: U= E(el) + E(ZPE) + E(vib) + E(rot) + E(trans)
    E(el)   - is the total energy from the electronic structure calculation
              = E(kin-el) + E(nuc-el) + E(el-el) + E(nuc-nuc)
    E(ZPE)  - the the zero temperature vibrational energy from the frequency calculation
    E(vib)  - the the finite temperature correction to E(ZPE) due to population
              of excited vibrational states
    E(rot)  - is the rotational thermal energy
    E(trans)- is the translational thermal energy

Summary of contributions to the inner energy U:
Electronic energy                ...   -398.45390850 Eh
Zero point energy                ...      0.11059461 Eh      69.40 kcal/mol
Thermal vibrational correction   ...      0.00474535 Eh       2.98 kcal/mol
Thermal rotational correction    ...      0.00141627 Eh       0.89 kcal/mol
Thermal translational correction ...      0.00141627 Eh       0.89 kcal/mol
-----------------------------------------------------------------------
Total thermal energy                   -398.33573599 Eh


Summary of corrections to the electronic energy:
(perhaps to be used in another calculation)
Total thermal correction                  0.00757790 Eh       4.76 kcal/mol
Non-thermal (ZPE) correction              0.11059461 Eh      69.40 kcal/mol
-----------------------------------------------------------------------
Total correction                          0.11817251 Eh      74.15 kcal/mol


--------
ENTHALPY
--------

The enthalpy is H = U + kB*T
                kB is Boltzmann's constant
Total free energy                 ...   -398.33573599 Eh 
Thermal Enthalpy correction       ...      0.00094421 Eh       0.59 kcal/mol
-----------------------------------------------------------------------
Total Enthalpy                    ...   -398.33479178 Eh


Note: Only C1 symmetry has been detected, increase convergence thresholds 
      if your molecule has a higher symmetry. Symmetry factor of 1.0 is   
      used for the rotational entropy correction. 
 

Note: Rotational entropy computed according to Herzberg 
Infrared and Raman Spectra, Chapter V,1, Van Nostrand Reinhold, 1945 
Point Group:  C1, Symmetry Number:   1  
Rotational constants in cm-1:     0.117169     0.077542     0.064017 

Vibrational entropy computed according to the QRRHO of S. Grimme
Chem.Eur.J. 2012 18 9955


-------
ENTROPY
-------

The entropy contributions are T*S = T*(S(el)+S(vib)+S(rot)+S(trans))
     S(el)   - electronic entropy
     S(vib)  - vibrational entropy
     S(rot)  - rotational entropy
     S(trans)- translational entropy
The entropies will be listed as multiplied by the temperature to get
units of energy

Electronic entropy                ...      0.00000000 Eh      0.00 kcal/mol
Vibrational entropy               ...      0.00792789 Eh      4.97 kcal/mol
Rotational entropy                ...      0.01302773 Eh      8.18 kcal/mol
Translational entropy             ...      0.01894160 Eh     11.89 kcal/mol
-----------------------------------------------------------------------
Final entropy term                ...      0.03989722 Eh     25.04 kcal/mol

In case the symmetry of your molecule has not been determined correctly
or in case you have a reason to use a different symmetry number we print 
out the resulting rotational entropy values for sn=1,12 :
 --------------------------------------------------------
|  sn= 1 | S(rot)=       0.01302773 Eh      8.18 kcal/mol|
|  sn= 2 | S(rot)=       0.01237327 Eh      7.76 kcal/mol|
|  sn= 3 | S(rot)=       0.01199044 Eh      7.52 kcal/mol|
|  sn= 4 | S(rot)=       0.01171882 Eh      7.35 kcal/mol|
|  sn= 5 | S(rot)=       0.01150813 Eh      7.22 kcal/mol|
|  sn= 6 | S(rot)=       0.01133598 Eh      7.11 kcal/mol|
|  sn= 7 | S(rot)=       0.01119044 Eh      7.02 kcal/mol|
|  sn= 8 | S(rot)=       0.01106436 Eh      6.94 kcal/mol|
|  sn= 9 | S(rot)=       0.01095315 Eh      6.87 kcal/mol|
|  sn=10 | S(rot)=       0.01085367 Eh      6.81 kcal/mol|
|  sn=11 | S(rot)=       0.01076368 Eh      6.75 kcal/mol|
|  sn=12 | S(rot)=       0.01068153 Eh      6.70 kcal/mol|
 --------------------------------------------------------


-------------------
GIBBS FREE ENERGY
-------------------

The Gibbs free energy is G = H - T*S

Total enthalpy                    ...   -398.33479178 Eh 
Total entropy correction          ...     -0.03989722 Eh    -25.04 kcal/mol
-----------------------------------------------------------------------
Final Gibbs free energy         ...   -398.37468900 Eh

For completeness - the Gibbs free energy minus the electronic energy
G-E(el)                           ...      0.07921950 Eh     49.71 kcal/mol



Timings for individual modules:

Sum of individual times         ...      277.230 sec (=   4.621 min)
GTO integral calculation        ...        2.297 sec (=   0.038 min)   0.8 %
SCF iterations                  ...       32.325 sec (=   0.539 min)  11.7 %
EPR/NMR calculation             ...        3.537 sec (=   0.059 min)   1.3 %
SCF Gradient evaluation         ...        4.035 sec (=   0.067 min)   1.5 %
Numerical frequency calculation ...      235.036 sec (=   3.917 min)  84.8 %
                             ****ORCA TERMINATED NORMALLY****
TOTAL RUN TIME: 0 days 0 hours 4 minutes 22 seconds 420 msec
